
     Program PWSCF v.6.5 starts on 14Jul2021 at 17:33:21 

     This program is part of the open-source Quantum ESPRESSO suite
     for quantum simulation of materials; please cite
         "P. Giannozzi et al., J. Phys.:Condens. Matter 21 395502 (2009);
         "P. Giannozzi et al., J. Phys.:Condens. Matter 29 465901 (2017);
          URL http://www.quantum-espresso.org", 
     in publications or presentations arising from this work. More details at
     http://www.quantum-espresso.org/quote

     Parallel version (MPI & OpenMP), running on       6 processor cores
     Number of MPI processes:                 6
     Threads/MPI process:                     1

     MPI processes distributed on     1 nodes
     R & G space division:  proc/nbgrp/npool/nimage =       6
     Reading input from in
Warning: card &CELL ignored
Warning: card    CELL_DYNAMICS = 'BFGS' ignored
Warning: card / ignored

     Current dimensions of program PWSCF are:
     Max number of different atomic species (ntypx) = 10
     Max number of k-points (npk) =  40000
     Max angular momentum in pseudopotentials (lmaxx) =  3
               file Na.potential.UPF: wavefunction(s)  2P renormalized
               file Cl.potential.UPF: wavefunction(s)  3S 3P renormalized

     Subspace diagonalization in iterative solution of the eigenvalue problem:
     one sub-group per band group will be used
     scalapack distributed-memory algorithm (size of sub-group:  2*  2 procs)

     Found symmetry operation: I + (  0.0000 -0.5000 -0.5000)
     This is a supercell, fractional translations are disabled
     Message from routine setup:
     using ibrav=0 with symmetry is DISCOURAGED, use correct ibrav instead
 
     Parallelization info
     --------------------
     sticks:   dense  smooth     PW     G-vecs:    dense   smooth      PW
     Min         263     263     76                 7875     7875    1240
     Max         264     264     78                 7878     7878    1241
     Sum        1581    1581    465                47257    47257    7441
 


     bravais-lattice index     =            0
     lattice parameter (alat)  =      11.1494  a.u.
     unit-cell volume          =    1385.9662 (a.u.)^3
     number of atoms/cell      =            8
     number of atomic types    =            2
     number of electrons       =        64.00
     number of Kohn-Sham states=           32
     kinetic-energy cutoff     =      40.0000  Ry
     charge density cutoff     =     160.0000  Ry
     convergence threshold     =      1.0E-08
     mixing beta               =       0.7000
     number of iterations used =            8  plain     mixing
     Exchange-correlation= SLA PW PBX PBC
                           (   1   4   3   4   0   0   0)
     nstep                     =           50


     celldm(1)=  11.149384  celldm(2)=   0.000000  celldm(3)=   0.000000
     celldm(4)=   0.000000  celldm(5)=   0.000000  celldm(6)=   0.000000

     crystal axes: (cart. coord. in units of alat)
               a(1) = (   1.000000   0.000000   0.000000 )  
               a(2) = (   0.000000   1.000000   0.000000 )  
               a(3) = (   0.000000   0.000000   1.000000 )  

     reciprocal axes: (cart. coord. in units 2 pi/alat)
               b(1) = (  1.000000  0.000000  0.000000 )  
               b(2) = (  0.000000  1.000000  0.000000 )  
               b(3) = (  0.000000  0.000000  1.000000 )  


     PseudoPot. # 1 for Na read from file:
     ./Na.potential.UPF
     MD5 check sum: 05b4deb74e3932c23ab016979dc8b5d4
     Pseudo is Projector augmented-wave + core cor, Zval =  9.0
     Generated using "atomic" code by A. Dal Corso v.6.3
     Shape of augmentation charge: PSQ
     Using radial grid of 1121 points,  4 beta functions with: 
                l(1) =   0
                l(2) =   0
                l(3) =   1
                l(4) =   1
     Q(r) pseudized with 0 coefficients 


     PseudoPot. # 2 for Cl read from file:
     ./Cl.potential.UPF
     MD5 check sum: 530da96d25dcb7781b0586ca00827062
     Pseudo is Projector augmented-wave + core cor, Zval =  7.0
     Generated using "atomic" code by A. Dal Corso v.6.3
     Shape of augmentation charge: PSQ
     Using radial grid of 1157 points,  6 beta functions with: 
                l(1) =   0
                l(2) =   0
                l(3) =   1
                l(4) =   1
                l(5) =   2
                l(6) =   2
     Q(r) pseudized with 0 coefficients 


     atomic species   valence    mass     pseudopotential
        Na             9.00    22.99000     Na( 1.00)
        Cl             7.00    35.45300     Cl( 1.00)

     48 Sym. Ops., with inversion, found



   Cartesian axes

     site n.     atom                  positions (alat units)
         1           Na  tau(   1) = (   0.0000000   0.0000000   0.0000000  )
         2           Na  tau(   2) = (   0.0000000   0.5000000   0.5000000  )
         3           Na  tau(   3) = (   0.5000000   0.0000000   0.5000000  )
         4           Na  tau(   4) = (   0.5000000   0.5000000   0.0000000  )
         5           Cl  tau(   5) = (   0.5000000   0.0000000   0.0000000  )
         6           Cl  tau(   6) = (   0.5000000   0.5000000   0.5000000  )
         7           Cl  tau(   7) = (   0.0000000   0.0000000   0.5000000  )
         8           Cl  tau(   8) = (   0.0000000   0.5000000   0.0000000  )

     number of k points=     4
                       cart. coord. in units 2pi/alat
        k(    1) = (   0.0000000   0.0000000   0.0000000), wk =   0.2500000
        k(    2) = (   0.0000000   0.0000000  -0.5000000), wk =   0.7500000
        k(    3) = (   0.0000000  -0.5000000  -0.5000000), wk =   0.7500000
        k(    4) = (  -0.5000000  -0.5000000  -0.5000000), wk =   0.2500000

     Dense  grid:    47257 G-vectors     FFT dimensions: (  45,  45,  45)

     Estimated max dynamical RAM per process >      37.29 MB

     Estimated total dynamical RAM >     223.74 MB

     Check: negative core charge=   -0.000020

     Initial potential from superposition of free atoms

     starting charge   63.97480, renormalised to   64.00000
     Starting wfcs are   36 randomized atomic wfcs
     Checking if some PAW data can be deallocated... 

     total cpu time spent up to now is        8.0 secs

     Self-consistent Calculation

     iteration #  1     ecut=    40.00 Ry     beta= 0.70
     Davidson diagonalization with overlap
     ethr =  1.00E-02,  avg # of iterations =  1.0

     Threshold (ethr) on eigenvalues was too large:
     Diagonalizing with lowered threshold

     Davidson diagonalization with overlap
     ethr =  4.66E-04,  avg # of iterations =  1.8

     total cpu time spent up to now is       12.5 secs

     total energy              =    -755.15466137 Ry
     Harris-Foulkes estimate   =    -755.31263203 Ry
     estimated scf accuracy    <       0.25130551 Ry

     iteration #  2     ecut=    40.00 Ry     beta= 0.70
     Davidson diagonalization with overlap
     ethr =  3.93E-04,  avg # of iterations =  2.0

     total cpu time spent up to now is       15.8 secs

     total energy              =    -755.22387786 Ry
     Harris-Foulkes estimate   =    -755.26436604 Ry
     estimated scf accuracy    <       0.07474029 Ry

     iteration #  3     ecut=    40.00 Ry     beta= 0.70
     Davidson diagonalization with overlap
     ethr =  1.17E-04,  avg # of iterations =  2.0

     total cpu time spent up to now is       19.1 secs

     total energy              =    -755.24074908 Ry
     Harris-Foulkes estimate   =    -755.24024461 Ry
     estimated scf accuracy    <       0.00128711 Ry

     iteration #  4     ecut=    40.00 Ry     beta= 0.70
     Davidson diagonalization with overlap
     ethr =  2.01E-06,  avg # of iterations =  2.0

     total cpu time spent up to now is       22.4 secs

     total energy              =    -755.24095143 Ry
     Harris-Foulkes estimate   =    -755.24094630 Ry
     estimated scf accuracy    <       0.00001266 Ry

     iteration #  5     ecut=    40.00 Ry     beta= 0.70
     Davidson diagonalization with overlap
     ethr =  1.98E-08,  avg # of iterations =  3.0

     total cpu time spent up to now is       26.8 secs

     total energy              =    -755.24096214 Ry
     Harris-Foulkes estimate   =    -755.24096156 Ry
     estimated scf accuracy    <       0.00000212 Ry

     iteration #  6     ecut=    40.00 Ry     beta= 0.70
     Davidson diagonalization with overlap
     ethr =  3.32E-09,  avg # of iterations =  2.0

     total cpu time spent up to now is       30.2 secs

     total energy              =    -755.24096260 Ry
     Harris-Foulkes estimate   =    -755.24096261 Ry
     estimated scf accuracy    <       0.00000019 Ry

     iteration #  7     ecut=    40.00 Ry     beta= 0.70
     Davidson diagonalization with overlap
     ethr =  2.96E-10,  avg # of iterations =  3.0

     total cpu time spent up to now is       33.9 secs

     End of self-consistent calculation

          k = 0.0000 0.0000 0.0000 (  5887 PWs)   bands (ev):

   -49.3231 -49.3215 -49.3211 -49.3211 -21.1062 -21.1062 -21.1062 -21.0972
   -21.0972 -21.0972 -21.0954 -21.0954 -21.0954 -21.0918 -21.0918 -21.0918
   -12.3289 -12.0695 -12.0689 -12.0689  -1.2606  -1.2606  -1.2606  -0.4095
    -0.4095  -0.4095  -0.4088  -0.4088  -0.4088   0.0645   0.0645   0.0645

          k = 0.0000 0.0000-0.5000 (  5910 PWs)   bands (ev):

   -49.3231 -49.3214 -49.3213 -49.3212 -21.1054 -21.1048 -21.1048 -21.1044
   -21.1044 -21.1036 -21.1001 -21.0984 -21.0960 -21.0960 -21.0957 -21.0957
   -12.1927 -12.1923 -12.0598 -12.0594  -0.8739  -0.8739  -0.8735  -0.8735
    -0.7928  -0.7922  -0.5342  -0.5336  -0.1847  -0.1847  -0.1843  -0.1843

          k = 0.0000-0.5000-0.5000 (  5912 PWs)   bands (ev):

   -49.3231 -49.3213 -49.3213 -49.3213 -21.1105 -21.1092 -21.1092 -21.1084
   -21.1031 -21.1024 -21.1010 -21.1010 -21.0941 -21.0927 -21.0927 -21.0920
   -12.1175 -12.1168 -12.1168 -12.1168  -1.1078  -1.1070  -1.1070  -1.1069
    -0.5544  -0.5536  -0.5534  -0.5534  -0.1399  -0.1388  -0.1388  -0.1387

          k =-0.5000-0.5000-0.5000 (  5904 PWs)   bands (ev):

   -49.3231 -49.3213 -49.3213 -49.3213 -21.1200 -21.1184 -21.1184 -21.1184
   -21.0946 -21.0946 -21.0934 -21.0934 -21.0934 -21.0924 -21.0924 -21.0924
   -12.1074 -12.1066 -12.1066 -12.1066  -1.4924  -1.4917  -1.4917  -1.4917
    -0.1383  -0.1383  -0.1373  -0.1373  -0.1373  -0.1371  -0.1371  -0.1371

     highest occupied level (ev):     0.0645

!    total energy              =    -755.24096263 Ry
     Harris-Foulkes estimate   =    -755.24096264 Ry
     estimated scf accuracy    <          4.1E-09 Ry

     total all-electron energy =     -4992.389023 Ry

     The total energy is the sum of the following terms:

     one-electron contribution =    -342.96204156 Ry
     hartree contribution      =     195.77360787 Ry
     xc contribution           =    -102.49663438 Ry
     ewald contribution        =    -263.09557588 Ry
     one-center paw contrib.   =    -242.46031868 Ry

     convergence has been achieved in   7 iterations

     Forces acting on atoms (cartesian axes, Ry/au):

     atom    1 type  1   force =     0.00000000    0.00000000    0.00000000
     atom    2 type  1   force =     0.00000000    0.00000000    0.00000000
     atom    3 type  1   force =     0.00000000    0.00000000    0.00000000
     atom    4 type  1   force =     0.00000000    0.00000000    0.00000000
     atom    5 type  2   force =     0.00000000    0.00000000    0.00000000
     atom    6 type  2   force =     0.00000000    0.00000000    0.00000000
     atom    7 type  2   force =     0.00000000    0.00000000    0.00000000
     atom    8 type  2   force =     0.00000000    0.00000000    0.00000000

     Total force =     0.000000     Total SCF correction =     0.000000


     Computing stress (Cartesian axis) and pressure

          total   stress  (Ry/bohr**3)                   (kbar)     P=     -135.65
  -0.00092211   0.00000000   0.00000000         -135.65        0.00        0.00
   0.00000000  -0.00092211   0.00000000            0.00     -135.65        0.00
   0.00000000   0.00000000  -0.00092211            0.00        0.00     -135.65


     BFGS Geometry Optimization

     bfgs converged in   1 scf cycles and   0 bfgs steps
     (criteria: energy <  1.0E-04 Ry, force <  1.0E-03 Ry/Bohr)

     End of BFGS Geometry Optimization

     Final energy   =    -755.2409626295 Ry
Begin final coordinates

ATOMIC_POSITIONS (crystal)
Na            0.0000000000        0.0000000000        0.0000000000
Na            0.0000000000        0.5000000000        0.5000000000
Na            0.5000000000        0.0000000000        0.5000000000
Na            0.5000000000        0.5000000000        0.0000000000
Cl            0.5000000000        0.0000000000        0.0000000000
Cl            0.5000000000        0.5000000000        0.5000000000
Cl            0.0000000000        0.0000000000        0.5000000000
Cl            0.0000000000        0.5000000000        0.0000000000
End final coordinates



     Writing output data file ./salt.save/
 
     init_run     :      0.44s CPU      2.80s WALL (       1 calls)
     electrons    :      4.05s CPU     25.90s WALL (       1 calls)
     forces       :      0.08s CPU      0.53s WALL (       1 calls)
     stress       :      0.30s CPU      1.91s WALL (       1 calls)

     Called by init_run:
     wfcinit      :      0.12s CPU      0.71s WALL (       1 calls)
     potinit      :      0.13s CPU      0.84s WALL (       1 calls)
     hinit0       :      0.13s CPU      0.84s WALL (       1 calls)

     Called by electrons:
     c_bands      :      2.62s CPU     16.57s WALL (       8 calls)
     sum_band     :      0.44s CPU      2.99s WALL (       8 calls)
     v_of_rho     :      0.06s CPU      0.36s WALL (       8 calls)
     newd         :      0.14s CPU      1.12s WALL (       8 calls)
     PAW_pot      :      0.91s CPU      5.62s WALL (       8 calls)
     mix_rho      :      0.01s CPU      0.09s WALL (       8 calls)

     Called by c_bands:
     init_us_2    :      0.03s CPU      0.04s WALL (      76 calls)
     cegterg      :      2.46s CPU     16.01s WALL (      32 calls)

     Called by sum_band:
     sum_band:bec :      0.00s CPU      0.00s WALL (      32 calls)
     addusdens    :      0.16s CPU      1.13s WALL (       8 calls)

     Called by *egterg:
     h_psi        :      1.25s CPU      8.12s WALL (     103 calls)
     s_psi        :      0.05s CPU      0.05s WALL (     103 calls)
     g_psi        :      0.01s CPU      0.01s WALL (      67 calls)
     cdiaghg      :      1.02s CPU      6.74s WALL (      95 calls)

     Called by h_psi:
     h_psi:calbec :      0.06s CPU      0.69s WALL (     103 calls)
     vloc_psi     :      1.13s CPU      7.29s WALL (     103 calls)
     add_vuspsi   :      0.06s CPU      0.06s WALL (     103 calls)

     General routines
     calbec       :      0.09s CPU      1.03s WALL (     155 calls)
     fft          :      0.05s CPU      0.83s WALL (     114 calls)
     ffts         :      0.00s CPU      0.02s WALL (       8 calls)
     fftw         :      1.24s CPU      8.54s WALL (    6532 calls)
 
     Parallel routines
     fft_scatt_xy :      0.16s CPU      0.16s WALL (    6654 calls)
     fft_scatt_yz :      0.39s CPU      8.48s WALL (    6654 calls)
 
     PWSCF        :      5.76s CPU     36.63s WALL

 
   This run was terminated on:  17:33:58  14Jul2021            

=------------------------------------------------------------------------------=
   JOB DONE.
=------------------------------------------------------------------------------=
