
     Program PWSCF v.6.5 starts on 15Jul2021 at 11:17:52 

     This program is part of the open-source Quantum ESPRESSO suite
     for quantum simulation of materials; please cite
         "P. Giannozzi et al., J. Phys.:Condens. Matter 21 395502 (2009);
         "P. Giannozzi et al., J. Phys.:Condens. Matter 29 465901 (2017);
          URL http://www.quantum-espresso.org", 
     in publications or presentations arising from this work. More details at
     http://www.quantum-espresso.org/quote

     Parallel version (MPI & OpenMP), running on       6 processor cores
     Number of MPI processes:                 6
     Threads/MPI process:                     1

     MPI processes distributed on     1 nodes
     R & G space division:  proc/nbgrp/npool/nimage =       6
     Reading input from in
Warning: card &CELL ignored
Warning: card    CELL_DYNAMICS = 'BFGS' ignored
Warning: card / ignored

     Current dimensions of program PWSCF are:
     Max number of different atomic species (ntypx) = 10
     Max number of k-points (npk) =  40000
     Max angular momentum in pseudopotentials (lmaxx) =  3
               file Au.potential.UPF: wavefunction(s)  6S 5D renormalized

     Subspace diagonalization in iterative solution of the eigenvalue problem:
     one sub-group per band group will be used
     scalapack distributed-memory algorithm (size of sub-group:  2*  2 procs)

     Found symmetry operation: I + ( -0.5000 -0.5000  0.0000)
     This is a supercell, fractional translations are disabled
     Message from routine setup:
     using ibrav=0 with symmetry is DISCOURAGED, use correct ibrav instead
 
     Parallelization info
     --------------------
     sticks:   dense  smooth     PW     G-vecs:    dense   smooth      PW
     Min         120     120     36                 2460     2460     418
     Max         121     121     37                 2463     2463     421
     Sum         725     725    221                14771    14771    2517
 


     bravais-lattice index     =            0
     lattice parameter (alat)  =       7.5589  a.u.
     unit-cell volume          =     431.8934 (a.u.)^3
     number of atoms/cell      =            4
     number of atomic types    =            1
     number of electrons       =        44.00
     number of Kohn-Sham states=           26
     kinetic-energy cutoff     =      40.0000  Ry
     charge density cutoff     =     160.0000  Ry
     convergence threshold     =      1.0E-08
     mixing beta               =       0.7000
     number of iterations used =            8  plain     mixing
     Exchange-correlation= SLA PW PBX PBC
                           (   1   4   3   4   0   0   0)
     nstep                     =           50


     celldm(1)=   7.558905  celldm(2)=   0.000000  celldm(3)=   0.000000
     celldm(4)=   0.000000  celldm(5)=   0.000000  celldm(6)=   0.000000

     crystal axes: (cart. coord. in units of alat)
               a(1) = (   1.000000   0.000000   0.000000 )  
               a(2) = (   0.000000   1.000000   0.000000 )  
               a(3) = (   0.000000   0.000000   1.000000 )  

     reciprocal axes: (cart. coord. in units 2 pi/alat)
               b(1) = (  1.000000  0.000000  0.000000 )  
               b(2) = (  0.000000  1.000000  0.000000 )  
               b(3) = (  0.000000  0.000000  1.000000 )  


     PseudoPot. # 1 for Au read from file:
     ./Au.potential.UPF
     MD5 check sum: 4db85c736373c707a97ce4c36c2a9d23
     Pseudo is Projector augmented-wave + core cor, Zval = 11.0
     Generated using "atomic" code by A. Dal Corso v.6.3
     Shape of augmentation charge: PSQ
     Using radial grid of 1279 points,  6 beta functions with: 
                l(1) =   0
                l(2) =   0
                l(3) =   1
                l(4) =   1
                l(5) =   2
                l(6) =   2
     Q(r) pseudized with 0 coefficients 


     atomic species   valence    mass     pseudopotential
        Au            11.00   196.97000     Au( 1.00)

     48 Sym. Ops., with inversion, found



   Cartesian axes

     site n.     atom                  positions (alat units)
         1           Au  tau(   1) = (   0.0000000   0.0000000   0.0000000  )
         2           Au  tau(   2) = (   0.5000000   0.5000000   0.0000000  )
         3           Au  tau(   3) = (   0.0000000   0.5000000   0.5000000  )
         4           Au  tau(   4) = (   0.5000000   0.0000000   0.5000000  )

     number of k points=    10  Gaussian smearing, width (Ry)=  0.0050
                       cart. coord. in units 2pi/alat
        k(    1) = (   0.0000000   0.0000000   0.0000000), wk =   0.0312500
        k(    2) = (   0.0000000   0.0000000   0.2500000), wk =   0.1875000
        k(    3) = (   0.0000000   0.0000000  -0.5000000), wk =   0.0937500
        k(    4) = (   0.0000000   0.2500000   0.2500000), wk =   0.3750000
        k(    5) = (   0.0000000   0.2500000  -0.5000000), wk =   0.3750000
        k(    6) = (   0.0000000  -0.5000000  -0.5000000), wk =   0.0937500
        k(    7) = (   0.2500000   0.2500000   0.2500000), wk =   0.2500000
        k(    8) = (   0.2500000   0.2500000  -0.5000000), wk =   0.3750000
        k(    9) = (   0.2500000  -0.5000000  -0.5000000), wk =   0.1875000
        k(   10) = (  -0.5000000  -0.5000000  -0.5000000), wk =   0.0312500

     Dense  grid:    14771 G-vectors     FFT dimensions: (  32,  32,  32)

     Estimated max dynamical RAM per process >      11.90 MB

     Estimated total dynamical RAM >      71.39 MB

     Initial potential from superposition of free atoms

     starting charge   43.99956, renormalised to   44.00000
     Starting wfcs are   36 randomized atomic wfcs
     Checking if some PAW data can be deallocated... 

     total cpu time spent up to now is        6.3 secs

     Self-consistent Calculation

     iteration #  1     ecut=    40.00 Ry     beta= 0.70
     Davidson diagonalization with overlap
     ethr =  1.00E-02,  avg # of iterations =  2.6

     Threshold (ethr) on eigenvalues was too large:
     Diagonalizing with lowered threshold

     Davidson diagonalization with overlap
     ethr =  2.55E-04,  avg # of iterations =  4.1

     total cpu time spent up to now is       14.8 secs

     total energy              =   -3100.44015416 Ry
     Harris-Foulkes estimate   =   -3100.57896169 Ry
     estimated scf accuracy    <       0.20269754 Ry

     iteration #  2     ecut=    40.00 Ry     beta= 0.70
     Davidson diagonalization with overlap
     ethr =  4.61E-04,  avg # of iterations =  3.0

     total cpu time spent up to now is       19.5 secs

     total energy              =   -3100.49999188 Ry
     Harris-Foulkes estimate   =   -3100.52617245 Ry
     estimated scf accuracy    <       0.04312213 Ry

     iteration #  3     ecut=    40.00 Ry     beta= 0.70
     Davidson diagonalization with overlap
     ethr =  9.80E-05,  avg # of iterations =  2.9

     total cpu time spent up to now is       24.0 secs

     total energy              =   -3100.51102877 Ry
     Harris-Foulkes estimate   =   -3100.51147151 Ry
     estimated scf accuracy    <       0.00124274 Ry

     iteration #  4     ecut=    40.00 Ry     beta= 0.70
     Davidson diagonalization with overlap
     ethr =  2.82E-06,  avg # of iterations =  3.9

     total cpu time spent up to now is       30.1 secs

     total energy              =   -3100.51181126 Ry
     Harris-Foulkes estimate   =   -3100.51247654 Ry
     estimated scf accuracy    <       0.00170548 Ry

     iteration #  5     ecut=    40.00 Ry     beta= 0.70
     Davidson diagonalization with overlap
     ethr =  2.82E-06,  avg # of iterations =  2.1

     total cpu time spent up to now is       33.5 secs

     total energy              =   -3100.51182112 Ry
     Harris-Foulkes estimate   =   -3100.51200958 Ry
     estimated scf accuracy    <       0.00034973 Ry

     iteration #  6     ecut=    40.00 Ry     beta= 0.70
     Davidson diagonalization with overlap
     ethr =  7.95E-07,  avg # of iterations =  2.8

     total cpu time spent up to now is       37.8 secs

     total energy              =   -3100.51189197 Ry
     Harris-Foulkes estimate   =   -3100.51189445 Ry
     estimated scf accuracy    <       0.00001085 Ry

     iteration #  7     ecut=    40.00 Ry     beta= 0.70
     Davidson diagonalization with overlap
     ethr =  2.47E-08,  avg # of iterations =  4.1

     total cpu time spent up to now is       43.9 secs

     total energy              =   -3100.51190279 Ry
     Harris-Foulkes estimate   =   -3100.51190344 Ry
     estimated scf accuracy    <       0.00000209 Ry

     iteration #  8     ecut=    40.00 Ry     beta= 0.70
     Davidson diagonalization with overlap
     ethr =  4.75E-09,  avg # of iterations =  2.1

     total cpu time spent up to now is       47.3 secs

     total energy              =   -3100.51190274 Ry
     Harris-Foulkes estimate   =   -3100.51190305 Ry
     estimated scf accuracy    <       0.00000080 Ry

     iteration #  9     ecut=    40.00 Ry     beta= 0.70
     Davidson diagonalization with overlap
     ethr =  1.82E-09,  avg # of iterations =  2.6

     total cpu time spent up to now is       51.2 secs

     total energy              =   -3100.51190283 Ry
     Harris-Foulkes estimate   =   -3100.51190283 Ry
     estimated scf accuracy    <       0.00000018 Ry

     iteration # 10     ecut=    40.00 Ry     beta= 0.70
     Davidson diagonalization with overlap
     ethr =  4.06E-10,  avg # of iterations =  3.7

     total cpu time spent up to now is       56.1 secs

     total energy              =   -3100.51190287 Ry
     Harris-Foulkes estimate   =   -3100.51190287 Ry
     estimated scf accuracy    <       0.00000014 Ry

     iteration # 11     ecut=    40.00 Ry     beta= 0.70
     Davidson diagonalization with overlap
     ethr =  3.28E-10,  avg # of iterations =  1.0

     total cpu time spent up to now is       58.7 secs

     total energy              =   -3100.51190291 Ry
     Harris-Foulkes estimate   =   -3100.51190287 Ry
     estimated scf accuracy    <       0.00000014 Ry

     iteration # 12     ecut=    40.00 Ry     beta= 0.70
     Davidson diagonalization with overlap
     ethr =  3.16E-10,  avg # of iterations =  1.0

     total cpu time spent up to now is       61.3 secs

     total energy              =   -3100.51190279 Ry
     Harris-Foulkes estimate   =   -3100.51190291 Ry
     estimated scf accuracy    <       0.00000024 Ry

     iteration # 13     ecut=    40.00 Ry     beta= 0.70
     Davidson diagonalization with overlap
     ethr =  3.16E-10,  avg # of iterations =  2.2

     total cpu time spent up to now is       65.0 secs

     total energy              =   -3100.51190281 Ry
     Harris-Foulkes estimate   =   -3100.51190282 Ry
     estimated scf accuracy    <       0.00000001 Ry

     iteration # 14     ecut=    40.00 Ry     beta= 0.70
     Davidson diagonalization with overlap
     ethr =  3.34E-11,  avg # of iterations =  4.0

     total cpu time spent up to now is       71.2 secs

     total energy              =   -3100.51190282 Ry
     Harris-Foulkes estimate   =   -3100.51190283 Ry
     estimated scf accuracy    <       0.00000002 Ry

     iteration # 15     ecut=    40.00 Ry     beta= 0.70
     Davidson diagonalization with overlap
     ethr =  3.34E-11,  avg # of iterations =  1.0

     total cpu time spent up to now is       73.8 secs

     total energy              =   -3100.51190282 Ry
     Harris-Foulkes estimate   =   -3100.51190282 Ry
     estimated scf accuracy    <       0.00000001 Ry

     iteration # 16     ecut=    40.00 Ry     beta= 0.70
     Davidson diagonalization with overlap
     ethr =  2.90E-11,  avg # of iterations =  1.0

     total cpu time spent up to now is       76.4 secs

     End of self-consistent calculation

          k = 0.0000 0.0000 0.0000 (  1839 PWs)   bands (ev):

     6.8330   9.7008   9.7009   9.7009  10.0497  10.0497  10.0497  12.3367
    12.3367  12.3367  14.0294  14.0294  15.3218  15.3218  15.3218  15.7312
    15.7312  15.7312  15.7313  15.7313  15.7313  18.2523  18.2523  18.2523
    23.6893  23.6893

          k = 0.0000 0.0000 0.2500 (  1835 PWs)   bands (ev):

     7.5858   9.9177  10.1948  10.1948  10.3362  10.4941  10.4941  11.9416
    12.6967  12.6967  13.6112  13.8634  13.8634  14.2048  14.7051  14.7051
    15.0220  15.0220  15.1173  15.2257  15.7324  15.7325  20.6089  20.6089
    23.0448  23.0448

          k = 0.0000 0.0000-0.5000 (  1840 PWs)   bands (ev):

     9.3764   9.3764  10.8995  10.8996  11.0860  11.0860  11.8025  11.8025
    11.8025  11.8025  13.0902  13.0903  13.7040  13.7040  13.7041  13.7041
    13.8503  13.8503  14.6466  14.6466  15.7335  15.7336  22.5374  22.5374
    23.9513  23.9513

          k = 0.0000 0.2500 0.2500 (  1853 PWs)   bands (ev):

     8.2610  10.3727  10.4599  10.4599  10.7275  10.7275  11.0478  11.8727
    12.7153  12.8202  12.8886  12.8887  13.2536  13.5787  14.3393  14.3970
    14.6781  14.6781  15.0119  15.0119  15.2296  17.5692  17.5692  21.5303
    22.2524  25.2222

          k = 0.0000 0.2500-0.5000 (  1852 PWs)   bands (ev):

     9.8959   9.8959  11.2033  11.2033  11.3161  11.3161  11.5283  11.5283
    11.8318  11.8318  12.3723  12.3723  13.7063  13.7064  13.7998  13.7998
    13.8629  13.8630  15.0158  15.0158  15.4483  15.4483  19.6152  19.6152
    24.9348  24.9348

          k = 0.0000-0.5000-0.5000 (  1852 PWs)   bands (ev):

    10.7995  10.7995  10.7995  10.7995  11.7288  11.7288  11.7288  11.7288
    12.0914  12.0914  12.0914  12.0915  13.3493  13.3493  13.3493  13.3493
    14.0143  14.0143  14.0143  14.0143  17.1684  17.1684  17.1685  17.1685
    26.3900  26.3900

          k = 0.2500 0.2500 0.2500 (  1854 PWs)   bands (ev):

     8.7215  10.3851  10.3851  10.3851  11.3657  11.3658  11.3658  12.1724
    12.6456  12.6456  12.7015  12.7015  12.7015  13.6454  13.6454  13.6454
    14.2106  14.2106  15.4700  15.4701  15.4701  18.5093  18.5093  18.5093
    23.0985  23.0985

          k = 0.2500 0.2500-0.5000 (  1856 PWs)   bands (ev):

     9.7557   9.7557  10.5643  10.5643  11.5746  11.5747  12.1963  12.1963
    12.3164  12.3165  12.7828  12.7828  12.8744  12.8744  13.2566  13.2566
    15.1094  15.1094  15.2136  15.2136  15.2336  15.2336  20.0991  20.0991
    20.7701  20.7701

          k = 0.2500-0.5000-0.5000 (  1820 PWs)   bands (ev):

     9.9046   9.9046   9.9046   9.9046  12.1175  12.1175  12.1175  12.1175
    12.6493  12.6493  12.6493  12.6493  13.4481  13.4481  13.4481  13.4481
    14.8599  14.8599  14.8599  14.8599  17.0017  17.0017  17.0017  17.0017
    22.7741  22.7741

          k =-0.5000-0.5000-0.5000 (  1856 PWs)   bands (ev):

     9.4657   9.4657   9.4657   9.4657  12.2902  12.2902  12.2902  12.2902
    12.2902  12.2902  12.2903  12.2903  15.3696  15.3696  15.3696  15.3696
    15.3696  15.3696  15.3696  15.3696  16.1277  16.1277  16.1277  16.1277
    20.8100  20.8100

     the Fermi energy is    17.4859 ev

!    total energy              =   -3100.51190282 Ry
     Harris-Foulkes estimate   =   -3100.51190282 Ry
     estimated scf accuracy    <          7.4E-09 Ry

     total all-electron energy =   -152095.896267 Ry

     The total energy is the sum of the following terms:

     one-electron contribution =      63.45963507 Ry
     hartree contribution      =      28.44904655 Ry
     xc contribution           =    -128.70313111 Ry
     ewald contribution        =    -293.57074623 Ry
     one-center paw contrib.   =   -2770.14647091 Ry
     smearing contrib. (-TS)   =      -0.00023620 Ry

     convergence has been achieved in  16 iterations

     Forces acting on atoms (cartesian axes, Ry/au):

     atom    1 type  1   force =     0.00000000    0.00000000    0.00000000
     atom    2 type  1   force =     0.00000000    0.00000000    0.00000000
     atom    3 type  1   force =     0.00000000    0.00000000    0.00000000
     atom    4 type  1   force =     0.00000000    0.00000000    0.00000000

     Total force =     0.000000     Total SCF correction =     0.000000


     Computing stress (Cartesian axis) and pressure

          total   stress  (Ry/bohr**3)                   (kbar)     P=      240.11
   0.00163223   0.00000000   0.00000000          240.11        0.00        0.00
   0.00000000   0.00163223   0.00000000            0.00      240.11        0.00
   0.00000000   0.00000000   0.00163223            0.00        0.00      240.11


     BFGS Geometry Optimization

     bfgs converged in   1 scf cycles and   0 bfgs steps
     (criteria: energy <  1.0E-04 Ry, force <  1.0E-03 Ry/Bohr)

     End of BFGS Geometry Optimization

     Final energy   =   -3100.5119028186 Ry
Begin final coordinates

ATOMIC_POSITIONS (crystal)
Au            0.0000000000        0.0000000000        0.0000000000
Au            0.5000000000        0.5000000000        0.0000000000
Au            0.0000000000        0.5000000000        0.5000000000
Au            0.5000000000        0.0000000000        0.5000000000
End final coordinates



     Writing output data file ./gold.save/
 
     init_run     :      0.35s CPU      2.29s WALL (       1 calls)
     electrons    :     10.88s CPU     70.06s WALL (       1 calls)
     forces       :      0.03s CPU      0.20s WALL (       1 calls)
     stress       :      0.10s CPU      0.63s WALL (       1 calls)

     Called by init_run:
     wfcinit      :      0.14s CPU      0.87s WALL (       1 calls)
     potinit      :      0.13s CPU      0.85s WALL (       1 calls)
     hinit0       :      0.07s CPU      0.43s WALL (       1 calls)

     Called by electrons:
     c_bands      :      8.23s CPU     53.42s WALL (      17 calls)
     sum_band     :      0.46s CPU      2.93s WALL (      17 calls)
     v_of_rho     :      0.05s CPU      0.30s WALL (      17 calls)
     newd         :      0.08s CPU      0.60s WALL (      17 calls)
     PAW_pot      :      2.16s CPU     13.43s WALL (      17 calls)
     mix_rho      :      0.03s CPU      0.19s WALL (      17 calls)

     Called by c_bands:
     init_us_2    :      0.04s CPU      0.04s WALL (     370 calls)
     cegterg      :      8.00s CPU     52.93s WALL (     170 calls)

     Called by sum_band:
     sum_band:bec :      0.00s CPU      0.00s WALL (     170 calls)
     addusdens    :      0.09s CPU      0.24s WALL (      17 calls)

     Called by *egterg:
     h_psi        :      1.66s CPU     11.68s WALL (     621 calls)
     s_psi        :      0.04s CPU      0.05s WALL (     621 calls)
     g_psi        :      0.01s CPU      0.01s WALL (     441 calls)
     cdiaghg      :      5.71s CPU     37.44s WALL (     601 calls)

     Called by h_psi:
     h_psi:calbec :      0.10s CPU      0.97s WALL (     621 calls)
     vloc_psi     :      1.50s CPU     10.64s WALL (     621 calls)
     add_vuspsi   :      0.05s CPU      0.06s WALL (     621 calls)

     General routines
     calbec       :      0.14s CPU      1.52s WALL (     841 calls)
     fft          :      0.03s CPU      0.63s WALL (     213 calls)
     ffts         :      0.00s CPU      0.04s WALL (      17 calls)
     fftw         :      1.60s CPU     12.30s WALL (   29082 calls)
 
     Parallel routines
     fft_scatt_xy :      0.28s CPU      0.30s WALL (   29312 calls)
     fft_scatt_yz :      0.82s CPU     12.12s WALL (   29312 calls)
 
     PWSCF        :     12.10s CPU   1m17.71s WALL

 
   This run was terminated on:  11:19: 9  15Jul2021            

=------------------------------------------------------------------------------=
   JOB DONE.
=------------------------------------------------------------------------------=
