
     Program PWSCF v.6.5 starts on 15Jul2021 at 11:30: 3 

     This program is part of the open-source Quantum ESPRESSO suite
     for quantum simulation of materials; please cite
         "P. Giannozzi et al., J. Phys.:Condens. Matter 21 395502 (2009);
         "P. Giannozzi et al., J. Phys.:Condens. Matter 29 465901 (2017);
          URL http://www.quantum-espresso.org", 
     in publications or presentations arising from this work. More details at
     http://www.quantum-espresso.org/quote

     Parallel version (MPI & OpenMP), running on       6 processor cores
     Number of MPI processes:                 6
     Threads/MPI process:                     1

     MPI processes distributed on     1 nodes
     R & G space division:  proc/nbgrp/npool/nimage =       6
     Reading input from in
Warning: card &CELL ignored
Warning: card    CELL_DYNAMICS = 'BFGS' ignored
Warning: card / ignored

     Current dimensions of program PWSCF are:
     Max number of different atomic species (ntypx) = 10
     Max number of k-points (npk) =  40000
     Max angular momentum in pseudopotentials (lmaxx) =  3
               file Fe.potential.UPF: wavefunction(s)  3P 3D renormalized

     Subspace diagonalization in iterative solution of the eigenvalue problem:
     one sub-group per band group will be used
     scalapack distributed-memory algorithm (size of sub-group:  2*  2 procs)

     Found symmetry operation: I + ( -0.5000 -0.5000 -0.5000)
     This is a supercell, fractional translations are disabled
     Message from routine setup:
     using ibrav=0 with symmetry is DISCOURAGED, use correct ibrav instead
 
     Parallelization info
     --------------------
     sticks:   dense  smooth     PW     G-vecs:    dense   smooth      PW
     Min          59      59     20                  839      839     170
     Max          60      60     21                  843      843     171
     Sum         357     357    121                 5041     5041    1021
 


     bravais-lattice index     =            0
     lattice parameter (alat)  =       5.2912  a.u.
     unit-cell volume          =     148.1394 (a.u.)^3
     number of atoms/cell      =            2
     number of atomic types    =            1
     number of electrons       =        32.00
     number of Kohn-Sham states=           20
     kinetic-energy cutoff     =      40.0000  Ry
     charge density cutoff     =     160.0000  Ry
     convergence threshold     =      1.0E-08
     mixing beta               =       0.7000
     number of iterations used =            8  plain     mixing
     Exchange-correlation= SLA PW PBX PBC
                           (   1   4   3   4   0   0   0)
     nstep                     =           50


     celldm(1)=   5.291233  celldm(2)=   0.000000  celldm(3)=   0.000000
     celldm(4)=   0.000000  celldm(5)=   0.000000  celldm(6)=   0.000000

     crystal axes: (cart. coord. in units of alat)
               a(1) = (   1.000000   0.000000   0.000000 )  
               a(2) = (   0.000000   1.000000   0.000000 )  
               a(3) = (   0.000000   0.000000   1.000000 )  

     reciprocal axes: (cart. coord. in units 2 pi/alat)
               b(1) = (  1.000000  0.000000  0.000000 )  
               b(2) = (  0.000000  1.000000  0.000000 )  
               b(3) = (  0.000000  0.000000  1.000000 )  


     PseudoPot. # 1 for Fe read from file:
     ./Fe.potential.UPF
     MD5 check sum: fc81f059e5c5069939230b1155715ae8
     Pseudo is Projector augmented-wave + core cor, Zval = 16.0
     Generated using "atomic" code by A. Dal Corso v.6.3
     Shape of augmentation charge: PSQ
     Using radial grid of 1191 points,  6 beta functions with: 
                l(1) =   0
                l(2) =   0
                l(3) =   1
                l(4) =   1
                l(5) =   2
                l(6) =   2
     Q(r) pseudized with 0 coefficients 


     atomic species   valence    mass     pseudopotential
        Fe            16.00    55.84500     Fe( 1.00)

     48 Sym. Ops., with inversion, found



   Cartesian axes

     site n.     atom                  positions (alat units)
         1           Fe  tau(   1) = (   0.0000000   0.0000000   0.0000000  )
         2           Fe  tau(   2) = (   0.5000000   0.5000000   0.5000000  )

     number of k points=    10  Gaussian smearing, width (Ry)=  0.0050
                       cart. coord. in units 2pi/alat
        k(    1) = (   0.0000000   0.0000000   0.0000000), wk =   0.0312500
        k(    2) = (   0.0000000   0.0000000   0.2500000), wk =   0.1875000
        k(    3) = (   0.0000000   0.0000000  -0.5000000), wk =   0.0937500
        k(    4) = (   0.0000000   0.2500000   0.2500000), wk =   0.3750000
        k(    5) = (   0.0000000   0.2500000  -0.5000000), wk =   0.3750000
        k(    6) = (   0.0000000  -0.5000000  -0.5000000), wk =   0.0937500
        k(    7) = (   0.2500000   0.2500000   0.2500000), wk =   0.2500000
        k(    8) = (   0.2500000   0.2500000  -0.5000000), wk =   0.3750000
        k(    9) = (   0.2500000  -0.5000000  -0.5000000), wk =   0.1875000
        k(   10) = (  -0.5000000  -0.5000000  -0.5000000), wk =   0.0312500

     Dense  grid:     5041 G-vectors     FFT dimensions: (  24,  24,  24)

     Estimated max dynamical RAM per process >       4.36 MB

     Estimated total dynamical RAM >      26.16 MB

     Check: negative core charge=   -0.000083

     Initial potential from superposition of free atoms

     starting charge   31.99912, renormalised to   32.00000
     Starting wfcs are   20 randomized atomic wfcs
     Checking if some PAW data can be deallocated... 

     total cpu time spent up to now is        4.7 secs

     Self-consistent Calculation

     iteration #  1     ecut=    40.00 Ry     beta= 0.70
     Davidson diagonalization with overlap
     ethr =  1.00E-02,  avg # of iterations =  3.4

     Threshold (ethr) on eigenvalues was too large:
     Diagonalizing with lowered threshold

     Davidson diagonalization with overlap
     ethr =  4.02E-04,  avg # of iterations =  1.5

     total cpu time spent up to now is        8.7 secs

     total energy              =    -657.95051355 Ry
     Harris-Foulkes estimate   =    -658.08188250 Ry
     estimated scf accuracy    <       0.18378749 Ry

     iteration #  2     ecut=    40.00 Ry     beta= 0.70
     Davidson diagonalization with overlap
     ethr =  5.74E-04,  avg # of iterations =  3.0

     total cpu time spent up to now is       11.9 secs

     total energy              =    -657.94699053 Ry
     Harris-Foulkes estimate   =    -658.18500202 Ry
     estimated scf accuracy    <       0.61994121 Ry

     iteration #  3     ecut=    40.00 Ry     beta= 0.70
     Davidson diagonalization with overlap
     ethr =  5.74E-04,  avg # of iterations =  3.1

     total cpu time spent up to now is       14.9 secs

     total energy              =    -658.01564470 Ry
     Harris-Foulkes estimate   =    -658.07959663 Ry
     estimated scf accuracy    <       0.90451877 Ry

     iteration #  4     ecut=    40.00 Ry     beta= 0.70
     Davidson diagonalization with overlap
     ethr =  5.74E-04,  avg # of iterations =  1.0

     total cpu time spent up to now is       16.5 secs

     total energy              =    -658.05029641 Ry
     Harris-Foulkes estimate   =    -658.05035624 Ry
     estimated scf accuracy    <       0.00298683 Ry

     iteration #  5     ecut=    40.00 Ry     beta= 0.70
     Davidson diagonalization with overlap
     ethr =  9.33E-06,  avg # of iterations =  2.7

     total cpu time spent up to now is       19.1 secs

     total energy              =    -658.05092716 Ry
     Harris-Foulkes estimate   =    -658.05105748 Ry
     estimated scf accuracy    <       0.00181990 Ry

     iteration #  6     ecut=    40.00 Ry     beta= 0.70
     Davidson diagonalization with overlap
     ethr =  5.69E-06,  avg # of iterations =  1.0

     total cpu time spent up to now is       20.6 secs

     total energy              =    -658.05091432 Ry
     Harris-Foulkes estimate   =    -658.05095554 Ry
     estimated scf accuracy    <       0.00046831 Ry

     iteration #  7     ecut=    40.00 Ry     beta= 0.70
     Davidson diagonalization with overlap
     ethr =  1.46E-06,  avg # of iterations =  1.0

     total cpu time spent up to now is       22.2 secs

     total energy              =    -658.05092329 Ry
     Harris-Foulkes estimate   =    -658.05092825 Ry
     estimated scf accuracy    <       0.00004469 Ry

     iteration #  8     ecut=    40.00 Ry     beta= 0.70
     Davidson diagonalization with overlap
     ethr =  1.40E-07,  avg # of iterations =  1.7

     total cpu time spent up to now is       24.1 secs

     total energy              =    -658.05092614 Ry
     Harris-Foulkes estimate   =    -658.05092615 Ry
     estimated scf accuracy    <       0.00000027 Ry

     iteration #  9     ecut=    40.00 Ry     beta= 0.70
     Davidson diagonalization with overlap
     ethr =  8.49E-10,  avg # of iterations =  2.9

     total cpu time spent up to now is       26.9 secs

     total energy              =    -658.05092623 Ry
     Harris-Foulkes estimate   =    -658.05092631 Ry
     estimated scf accuracy    <       0.00000052 Ry

     iteration # 10     ecut=    40.00 Ry     beta= 0.70
     Davidson diagonalization with overlap
     ethr =  8.49E-10,  avg # of iterations =  1.9

     total cpu time spent up to now is       29.0 secs

     End of self-consistent calculation

          k = 0.0000 0.0000 0.0000 (   619 PWs)   bands (ev):

   -68.2128 -68.0446 -34.1016 -34.1016 -34.1016 -33.8546 -33.8546 -33.8546
    10.4656  15.0058  15.0058  17.6269  17.6269  17.6269  19.3726  19.3726
    20.6718  20.6718  20.6718  29.2612

          k = 0.0000 0.0000 0.2500 (   647 PWs)   bands (ev):

   -68.1860 -68.0713 -34.1665 -34.1304 -34.1304 -33.9533 -33.8981 -33.8981
    11.7460  15.3520  15.5084  17.6071  17.6071  18.0062  18.7173  19.3664
    19.3664  19.6069  19.9830  24.4870

          k = 0.0000 0.0000-0.5000 (   642 PWs)   bands (ev):

   -68.1256 -68.1254 -34.0823 -34.0822 -34.0167 -34.0167 -34.0166 -34.0166
    14.5704  14.5705  17.0419  17.0420  18.1319  18.1319  18.1320  18.1320
    18.9584  18.9585  20.4852  20.4852

          k = 0.0000 0.2500 0.2500 (   634 PWs)   bands (ev):

   -68.1648 -68.0835 -34.2130 -34.0939 -34.0674 -33.9945 -33.9155 -33.8535
    12.8349  15.5316  16.1470  16.9814  17.4600  18.0334  18.8849  19.0378
    19.1193  19.4626  20.6533  24.7753

          k = 0.0000 0.2500-0.5000 (   628 PWs)   bands (ev):

   -68.1209 -68.1208 -34.2049 -34.2049 -33.9954 -33.9953 -33.8884 -33.8883
    14.8031  14.8031  17.0330  17.0330  17.2827  17.2828  18.9219  18.9219
    20.1951  20.1951  20.6207  20.6208

          k = 0.0000-0.5000-0.5000 (   624 PWs)   bands (ev):

   -68.1171 -68.1170 -34.2778 -34.2778 -33.9630 -33.9629 -33.8597 -33.8597
    14.6360  14.6360  16.5040  16.5040  19.2457  19.2457  19.5494  19.5494
    19.6353  19.6354  20.8885  20.8885

          k = 0.2500 0.2500 0.2500 (   630 PWs)   bands (ev):

   -68.1510 -68.0907 -34.1541 -34.1541 -34.1376 -33.9243 -33.9243 -33.8874
    13.8840  16.3058  16.3058  16.7541  16.7541  16.8431  19.3018  19.3018
    19.7935  19.7935  20.2196  26.8299

          k = 0.2500 0.2500-0.5000 (   630 PWs)   bands (ev):

   -68.1180 -68.1179 -34.2099 -34.2098 -34.0421 -34.0420 -33.8802 -33.8802
    15.4764  15.4765  16.5007  16.5007  17.0068  17.0069  19.2187  19.2187
    19.7865  19.7866  22.3075  22.3075

          k = 0.2500-0.5000-0.5000 (   636 PWs)   bands (ev):

   -68.1158 -68.1157 -34.2252 -34.2252 -34.0253 -34.0252 -33.9507 -33.9507
    15.4434  15.4434  16.2539  16.2539  17.6742  17.6742  19.4294  19.4294
    19.5914  19.5915  23.8568  23.8568

          k =-0.5000-0.5000-0.5000 (   624 PWs)   bands (ev):

   -68.1116 -68.1115 -34.0636 -34.0636 -34.0636 -34.0634 -34.0634 -34.0634
    16.4771  16.4771  16.4771  16.4772  16.4772  16.4772  19.6706  19.6706
    19.6706  19.6706  28.3053  28.3053

     the Fermi energy is    19.3802 ev

!    total energy              =    -658.05092626 Ry
     Harris-Foulkes estimate   =    -658.05092627 Ry
     estimated scf accuracy    <          7.8E-09 Ry

     total all-electron energy =     -5090.643992 Ry

     The total energy is the sum of the following terms:

     one-electron contribution =    -212.07993064 Ry
     hartree contribution      =     126.95821112 Ry
     xc contribution           =     -55.27956932 Ry
     ewald contribution        =    -352.14617570 Ry
     one-center paw contrib.   =    -165.50223538 Ry
     smearing contrib. (-TS)   =      -0.00122633 Ry

     convergence has been achieved in  10 iterations

     Forces acting on atoms (cartesian axes, Ry/au):

     atom    1 type  1   force =     0.00000000    0.00000000    0.00000000
     atom    2 type  1   force =     0.00000000    0.00000000    0.00000000

     Total force =     0.000000     Total SCF correction =     0.000000


     Computing stress (Cartesian axis) and pressure

          total   stress  (Ry/bohr**3)                   (kbar)     P=    -2805.86
  -0.01907388   0.00000000   0.00000000        -2805.86        0.00        0.00
   0.00000000  -0.01907388   0.00000000            0.00    -2805.86        0.00
   0.00000000   0.00000000  -0.01907388            0.00        0.00    -2805.86


     BFGS Geometry Optimization

     bfgs converged in   1 scf cycles and   0 bfgs steps
     (criteria: energy <  1.0E-04 Ry, force <  1.0E-03 Ry/Bohr)

     End of BFGS Geometry Optimization

     Final energy   =    -658.0509262583 Ry
Begin final coordinates

ATOMIC_POSITIONS (crystal)
Fe            0.0000000000        0.0000000000        0.0000000000
Fe            0.5000000000        0.5000000000        0.5000000000
End final coordinates



     Writing output data file ./iron.save/
 
     init_run     :      0.19s CPU      1.25s WALL (       1 calls)
     electrons    :      3.72s CPU     24.34s WALL (       1 calls)
     forces       :      0.01s CPU      0.08s WALL (       1 calls)
     stress       :      0.03s CPU      0.21s WALL (       1 calls)

     Called by init_run:
     wfcinit      :      0.07s CPU      0.47s WALL (       1 calls)
     potinit      :      0.06s CPU      0.41s WALL (       1 calls)
     hinit0       :      0.05s CPU      0.31s WALL (       1 calls)

     Called by electrons:
     c_bands      :      2.95s CPU     19.50s WALL (      11 calls)
     sum_band     :      0.14s CPU      0.90s WALL (      11 calls)
     v_of_rho     :      0.02s CPU      0.10s WALL (      11 calls)
     newd         :      0.02s CPU      0.15s WALL (      11 calls)
     PAW_pot      :      0.65s CPU      4.00s WALL (      11 calls)
     mix_rho      :      0.01s CPU      0.07s WALL (      11 calls)

     Called by c_bands:
     init_us_2    :      0.01s CPU      0.01s WALL (     250 calls)
     cegterg      :      2.91s CPU     19.36s WALL (     110 calls)

     Called by sum_band:
     sum_band:bec :      0.00s CPU      0.00s WALL (     110 calls)
     addusdens    :      0.02s CPU      0.02s WALL (      11 calls)

     Called by *egterg:
     h_psi        :      0.46s CPU      3.21s WALL (     352 calls)
     s_psi        :      0.00s CPU      0.01s WALL (     352 calls)
     g_psi        :      0.00s CPU      0.00s WALL (     232 calls)
     cdiaghg      :      2.22s CPU     14.65s WALL (     332 calls)

     Called by h_psi:
     h_psi:calbec :      0.03s CPU      0.26s WALL (     352 calls)
     vloc_psi     :      0.42s CPU      2.94s WALL (     352 calls)
     add_vuspsi   :      0.01s CPU      0.01s WALL (     352 calls)

     General routines
     calbec       :      0.04s CPU      0.43s WALL (     512 calls)
     fft          :      0.01s CPU      0.17s WALL (     147 calls)
     ffts         :      0.00s CPU      0.01s WALL (      11 calls)
     fftw         :      0.47s CPU      3.51s WALL (   12788 calls)
 
     Parallel routines
     fft_scatt_xy :      0.06s CPU      0.06s WALL (   12946 calls)
     fft_scatt_yz :      0.25s CPU      3.44s WALL (   12946 calls)
 
     PWSCF        :      4.57s CPU     29.66s WALL

 
   This run was terminated on:  11:30:32  15Jul2021            

=------------------------------------------------------------------------------=
   JOB DONE.
=------------------------------------------------------------------------------=
