
     Program PWSCF v.6.5 starts on 14Jul2021 at 17:28: 1 

     This program is part of the open-source Quantum ESPRESSO suite
     for quantum simulation of materials; please cite
         "P. Giannozzi et al., J. Phys.:Condens. Matter 21 395502 (2009);
         "P. Giannozzi et al., J. Phys.:Condens. Matter 29 465901 (2017);
          URL http://www.quantum-espresso.org", 
     in publications or presentations arising from this work. More details at
     http://www.quantum-espresso.org/quote

     Parallel version (MPI & OpenMP), running on       6 processor cores
     Number of MPI processes:                 6
     Threads/MPI process:                     1

     MPI processes distributed on     1 nodes
     R & G space division:  proc/nbgrp/npool/nimage =       6
     Reading input from in
Warning: card &CELL ignored
Warning: card    CELL_DYNAMICS = 'BFGS' ignored
Warning: card / ignored

     Current dimensions of program PWSCF are:
     Max number of different atomic species (ntypx) = 10
     Max number of k-points (npk) =  40000
     Max angular momentum in pseudopotentials (lmaxx) =  3
               file Na.potential.UPF: wavefunction(s)  2P renormalized
               file Cl.potential.UPF: wavefunction(s)  3S 3P renormalized

     Subspace diagonalization in iterative solution of the eigenvalue problem:
     one sub-group per band group will be used
     scalapack distributed-memory algorithm (size of sub-group:  2*  2 procs)

     Found symmetry operation: I + (  0.0000 -0.5000 -0.5000)
     This is a supercell, fractional translations are disabled
     Message from routine setup:
     using ibrav=0 with symmetry is DISCOURAGED, use correct ibrav instead
 
     Parallelization info
     --------------------
     sticks:   dense  smooth     PW     G-vecs:    dense   smooth      PW
     Min         246     246     72                 7154     7154    1127
     Max         247     247     73                 7157     7157    1128
     Sum        1481    1481    437                42931    42931    6763
 


     bravais-lattice index     =            0
     lattice parameter (alat)  =      10.7714  a.u.
     unit-cell volume          =    1249.7443 (a.u.)^3
     number of atoms/cell      =            8
     number of atomic types    =            2
     number of electrons       =        64.00
     number of Kohn-Sham states=           32
     kinetic-energy cutoff     =      40.0000  Ry
     charge density cutoff     =     160.0000  Ry
     convergence threshold     =      1.0E-08
     mixing beta               =       0.7000
     number of iterations used =            8  plain     mixing
     Exchange-correlation= SLA PW PBX PBC
                           (   1   4   3   4   0   0   0)
     nstep                     =           50


     celldm(1)=  10.771439  celldm(2)=   0.000000  celldm(3)=   0.000000
     celldm(4)=   0.000000  celldm(5)=   0.000000  celldm(6)=   0.000000

     crystal axes: (cart. coord. in units of alat)
               a(1) = (   1.000000   0.000000   0.000000 )  
               a(2) = (   0.000000   1.000000   0.000000 )  
               a(3) = (   0.000000   0.000000   1.000000 )  

     reciprocal axes: (cart. coord. in units 2 pi/alat)
               b(1) = (  1.000000  0.000000  0.000000 )  
               b(2) = (  0.000000  1.000000  0.000000 )  
               b(3) = (  0.000000  0.000000  1.000000 )  


     PseudoPot. # 1 for Na read from file:
     ./Na.potential.UPF
     MD5 check sum: 05b4deb74e3932c23ab016979dc8b5d4
     Pseudo is Projector augmented-wave + core cor, Zval =  9.0
     Generated using "atomic" code by A. Dal Corso v.6.3
     Shape of augmentation charge: PSQ
     Using radial grid of 1121 points,  4 beta functions with: 
                l(1) =   0
                l(2) =   0
                l(3) =   1
                l(4) =   1
     Q(r) pseudized with 0 coefficients 


     PseudoPot. # 2 for Cl read from file:
     ./Cl.potential.UPF
     MD5 check sum: 530da96d25dcb7781b0586ca00827062
     Pseudo is Projector augmented-wave + core cor, Zval =  7.0
     Generated using "atomic" code by A. Dal Corso v.6.3
     Shape of augmentation charge: PSQ
     Using radial grid of 1157 points,  6 beta functions with: 
                l(1) =   0
                l(2) =   0
                l(3) =   1
                l(4) =   1
                l(5) =   2
                l(6) =   2
     Q(r) pseudized with 0 coefficients 


     atomic species   valence    mass     pseudopotential
        Na             9.00    22.99000     Na( 1.00)
        Cl             7.00    35.45300     Cl( 1.00)

     48 Sym. Ops., with inversion, found



   Cartesian axes

     site n.     atom                  positions (alat units)
         1           Na  tau(   1) = (   0.0000000   0.0000000   0.0000000  )
         2           Na  tau(   2) = (   0.0000000   0.5000000   0.5000000  )
         3           Na  tau(   3) = (   0.5000000   0.0000000   0.5000000  )
         4           Na  tau(   4) = (   0.5000000   0.5000000   0.0000000  )
         5           Cl  tau(   5) = (   0.5000000   0.0000000   0.0000000  )
         6           Cl  tau(   6) = (   0.5000000   0.5000000   0.5000000  )
         7           Cl  tau(   7) = (   0.0000000   0.0000000   0.5000000  )
         8           Cl  tau(   8) = (   0.0000000   0.5000000   0.0000000  )

     number of k points=     4
                       cart. coord. in units 2pi/alat
        k(    1) = (   0.0000000   0.0000000   0.0000000), wk =   0.2500000
        k(    2) = (   0.0000000   0.0000000  -0.5000000), wk =   0.7500000
        k(    3) = (   0.0000000  -0.5000000  -0.5000000), wk =   0.7500000
        k(    4) = (  -0.5000000  -0.5000000  -0.5000000), wk =   0.2500000

     Dense  grid:    42931 G-vectors     FFT dimensions: (  45,  45,  45)

     Estimated max dynamical RAM per process >      34.17 MB

     Estimated total dynamical RAM >     205.01 MB

     Check: negative core charge=   -0.000021

     Initial potential from superposition of free atoms

     starting charge   63.97480, renormalised to   64.00000
     Starting wfcs are   36 randomized atomic wfcs
     Checking if some PAW data can be deallocated... 

     total cpu time spent up to now is        7.5 secs

     Self-consistent Calculation

     iteration #  1     ecut=    40.00 Ry     beta= 0.70
     Davidson diagonalization with overlap
     ethr =  1.00E-02,  avg # of iterations =  1.0

     Threshold (ethr) on eigenvalues was too large:
     Diagonalizing with lowered threshold

     Davidson diagonalization with overlap
     ethr =  4.18E-04,  avg # of iterations =  1.8

     total cpu time spent up to now is       11.8 secs

     total energy              =    -755.18042479 Ry
     Harris-Foulkes estimate   =    -755.31882167 Ry
     estimated scf accuracy    <       0.22386135 Ry

     iteration #  2     ecut=    40.00 Ry     beta= 0.70
     Davidson diagonalization with overlap
     ethr =  3.50E-04,  avg # of iterations =  2.0

     total cpu time spent up to now is       15.0 secs

     total energy              =    -755.24263325 Ry
     Harris-Foulkes estimate   =    -755.27460047 Ry
     estimated scf accuracy    <       0.05873752 Ry

     iteration #  3     ecut=    40.00 Ry     beta= 0.70
     Davidson diagonalization with overlap
     ethr =  9.18E-05,  avg # of iterations =  2.0

     total cpu time spent up to now is       18.2 secs

     total energy              =    -755.25598540 Ry
     Harris-Foulkes estimate   =    -755.25551900 Ry
     estimated scf accuracy    <       0.00108603 Ry

     iteration #  4     ecut=    40.00 Ry     beta= 0.70
     Davidson diagonalization with overlap
     ethr =  1.70E-06,  avg # of iterations =  2.0

     total cpu time spent up to now is       21.3 secs

     total energy              =    -755.25614429 Ry
     Harris-Foulkes estimate   =    -755.25614244 Ry
     estimated scf accuracy    <       0.00001302 Ry

     iteration #  5     ecut=    40.00 Ry     beta= 0.70
     Davidson diagonalization with overlap
     ethr =  2.03E-08,  avg # of iterations =  3.0

     total cpu time spent up to now is       25.6 secs

     total energy              =    -755.25615521 Ry
     Harris-Foulkes estimate   =    -755.25615439 Ry
     estimated scf accuracy    <       0.00000248 Ry

     iteration #  6     ecut=    40.00 Ry     beta= 0.70
     Davidson diagonalization with overlap
     ethr =  3.87E-09,  avg # of iterations =  2.0

     total cpu time spent up to now is       29.0 secs

     total energy              =    -755.25615584 Ry
     Harris-Foulkes estimate   =    -755.25615592 Ry
     estimated scf accuracy    <       0.00000027 Ry

     iteration #  7     ecut=    40.00 Ry     beta= 0.70
     Davidson diagonalization with overlap
     ethr =  4.25E-10,  avg # of iterations =  3.0

     total cpu time spent up to now is       32.6 secs

     End of self-consistent calculation

          k = 0.0000 0.0000 0.0000 (  5377 PWs)   bands (ev):

   -48.3962 -48.3953 -48.3948 -48.3948 -20.1884 -20.1884 -20.1884 -20.1874
   -20.1874 -20.1874 -20.1870 -20.1870 -20.1870 -20.1862 -20.1862 -20.1862
   -11.8312 -11.4813 -11.4811 -11.4811  -0.8069  -0.8069  -0.8069   0.1979
     0.1979   0.1979   0.1983   0.1983   0.1983   0.7592   0.7592   0.7592

          k = 0.0000 0.0000-0.5000 (  5358 PWs)   bands (ev):

   -48.3959 -48.3952 -48.3950 -48.3948 -20.1917 -20.1912 -20.1909 -20.1909
   -20.1904 -20.1904 -20.1860 -20.1854 -20.1784 -20.1784 -20.1779 -20.1779
   -11.6462 -11.6460 -11.4661 -11.4660  -0.3575  -0.3575  -0.3575  -0.3575
    -0.2544  -0.2541   0.0429   0.0432   0.4619   0.4619   0.4621   0.4621

          k = 0.0000-0.5000-0.5000 (  5360 PWs)   bands (ev):

   -48.3959 -48.3950 -48.3950 -48.3950 -20.1953 -20.1953 -20.1953 -20.1943
   -20.1835 -20.1835 -20.1834 -20.1824 -20.1816 -20.1815 -20.1815 -20.1805
   -11.5420 -11.5416 -11.5416 -11.5416  -0.6249  -0.6248  -0.6248  -0.6246
     0.0180   0.0181   0.0184   0.0184   0.5064   0.5069   0.5069   0.5069

          k =-0.5000-0.5000-0.5000 (  5400 PWs)   bands (ev):

   -48.3959 -48.3950 -48.3950 -48.3950 -20.2030 -20.2030 -20.2030 -20.2019
   -20.1847 -20.1847 -20.1847 -20.1847 -20.1847 -20.1847 -20.1836 -20.1836
   -11.5255 -11.5251 -11.5251 -11.5251  -1.0746  -1.0745  -1.0745  -1.0745
     0.5080   0.5080   0.5084   0.5084   0.5084   0.5085   0.5085   0.5085

     highest occupied level (ev):     0.7592

!    total energy              =    -755.25615588 Ry
     Harris-Foulkes estimate   =    -755.25615589 Ry
     estimated scf accuracy    <          3.8E-09 Ry

     total all-electron energy =     -4992.404216 Ry

     The total energy is the sum of the following terms:

     one-electron contribution =    -327.93371831 Ry
     hartree contribution      =     190.10754387 Ry
     xc contribution           =    -102.63767813 Ry
     ewald contribution        =    -272.32699959 Ry
     one-center paw contrib.   =    -242.46530371 Ry

     convergence has been achieved in   7 iterations

     Forces acting on atoms (cartesian axes, Ry/au):

     atom    1 type  1   force =     0.00000000    0.00000000    0.00000000
     atom    2 type  1   force =     0.00000000    0.00000000    0.00000000
     atom    3 type  1   force =     0.00000000    0.00000000    0.00000000
     atom    4 type  1   force =     0.00000000    0.00000000    0.00000000
     atom    5 type  2   force =     0.00000000    0.00000000    0.00000000
     atom    6 type  2   force =     0.00000000    0.00000000    0.00000000
     atom    7 type  2   force =     0.00000000    0.00000000    0.00000000
     atom    8 type  2   force =     0.00000000    0.00000000    0.00000000

     Total force =     0.000000     Total SCF correction =     0.000000


     Computing stress (Cartesian axis) and pressure

          total   stress  (Ry/bohr**3)                   (kbar)     P=     -121.64
  -0.00082688   0.00000000   0.00000000         -121.64        0.00        0.00
   0.00000000  -0.00082688   0.00000000            0.00     -121.64        0.00
   0.00000000   0.00000000  -0.00082688            0.00        0.00     -121.64


     BFGS Geometry Optimization

     bfgs converged in   1 scf cycles and   0 bfgs steps
     (criteria: energy <  1.0E-04 Ry, force <  1.0E-03 Ry/Bohr)

     End of BFGS Geometry Optimization

     Final energy   =    -755.2561558824 Ry
Begin final coordinates

ATOMIC_POSITIONS (crystal)
Na            0.0000000000        0.0000000000        0.0000000000
Na            0.0000000000        0.5000000000        0.5000000000
Na            0.5000000000        0.0000000000        0.5000000000
Na            0.5000000000        0.5000000000        0.0000000000
Cl            0.5000000000        0.0000000000        0.0000000000
Cl            0.5000000000        0.5000000000        0.5000000000
Cl            0.0000000000        0.0000000000        0.5000000000
Cl            0.0000000000        0.5000000000        0.0000000000
End final coordinates



     Writing output data file ./salt.save/
 
     init_run     :      0.41s CPU      2.68s WALL (       1 calls)
     electrons    :      3.97s CPU     25.22s WALL (       1 calls)
     forces       :      0.07s CPU      0.49s WALL (       1 calls)
     stress       :      0.28s CPU      1.76s WALL (       1 calls)

     Called by init_run:
     wfcinit      :      0.10s CPU      0.68s WALL (       1 calls)
     potinit      :      0.13s CPU      0.82s WALL (       1 calls)
     hinit0       :      0.13s CPU      0.81s WALL (       1 calls)

     Called by electrons:
     c_bands      :      2.57s CPU     16.22s WALL (       8 calls)
     sum_band     :      0.42s CPU      2.79s WALL (       8 calls)
     v_of_rho     :      0.06s CPU      0.36s WALL (       8 calls)
     newd         :      0.13s CPU      0.98s WALL (       8 calls)
     PAW_pot      :      0.92s CPU      5.62s WALL (       8 calls)
     mix_rho      :      0.01s CPU      0.08s WALL (       8 calls)

     Called by c_bands:
     init_us_2    :      0.03s CPU      0.03s WALL (      76 calls)
     cegterg      :      2.42s CPU     15.94s WALL (      32 calls)

     Called by sum_band:
     sum_band:bec :      0.00s CPU      0.00s WALL (      32 calls)
     addusdens    :      0.15s CPU      0.98s WALL (       8 calls)

     Called by *egterg:
     h_psi        :      1.20s CPU      8.22s WALL (     103 calls)
     s_psi        :      0.04s CPU      0.04s WALL (     103 calls)
     g_psi        :      0.01s CPU      0.01s WALL (      67 calls)
     cdiaghg      :      1.04s CPU      6.79s WALL (      95 calls)

     Called by h_psi:
     h_psi:calbec :      0.05s CPU      0.66s WALL (     103 calls)
     vloc_psi     :      1.09s CPU      7.46s WALL (     103 calls)
     add_vuspsi   :      0.05s CPU      0.05s WALL (     103 calls)

     General routines
     calbec       :      0.08s CPU      0.99s WALL (     155 calls)
     fft          :      0.05s CPU      0.76s WALL (     114 calls)
     ffts         :      0.00s CPU      0.02s WALL (       8 calls)
     fftw         :      1.20s CPU      8.69s WALL (    6594 calls)
 
     Parallel routines
     fft_scatt_xy :      0.15s CPU      0.16s WALL (    6716 calls)
     fft_scatt_yz :      0.38s CPU      8.57s WALL (    6716 calls)
 
     PWSCF        :      5.56s CPU     35.23s WALL

 
   This run was terminated on:  17:28:36  14Jul2021            

=------------------------------------------------------------------------------=
   JOB DONE.
=------------------------------------------------------------------------------=
