
     Program PWSCF v.6.5 starts on  9Jul2021 at 12:33:16 

     This program is part of the open-source Quantum ESPRESSO suite
     for quantum simulation of materials; please cite
         "P. Giannozzi et al., J. Phys.:Condens. Matter 21 395502 (2009);
         "P. Giannozzi et al., J. Phys.:Condens. Matter 29 465901 (2017);
          URL http://www.quantum-espresso.org", 
     in publications or presentations arising from this work. More details at
     http://www.quantum-espresso.org/quote

     Parallel version (MPI & OpenMP), running on       6 processor cores
     Number of MPI processes:                 6
     Threads/MPI process:                     1

     MPI processes distributed on     1 nodes
     R & G space division:  proc/nbgrp/npool/nimage =       6
     Reading input from in
Warning: card &CELL ignored
Warning: card    CELL_DYNAMICS = 'BFGS' ignored
Warning: card / ignored

     Current dimensions of program PWSCF are:
     Max number of different atomic species (ntypx) = 10
     Max number of k-points (npk) =  40000
     Max angular momentum in pseudopotentials (lmaxx) =  3
               file Au.potential.UPF: wavefunction(s)  6S 5D renormalized

     Subspace diagonalization in iterative solution of the eigenvalue problem:
     one sub-group per band group will be used
     scalapack distributed-memory algorithm (size of sub-group:  2*  2 procs)

     Found symmetry operation: I + ( -0.5000 -0.5000  0.0000)
     This is a supercell, fractional translations are disabled
     Message from routine setup:
     using ibrav=0 with symmetry is DISCOURAGED, use correct ibrav instead
 
     Parallelization info
     --------------------
     sticks:   dense  smooth     PW     G-vecs:    dense   smooth      PW
     Min         140     140     42                 3053     3053     511
     Max         141     141     43                 3055     3055     512
     Sum         845     845    253                18325    18325    3071
 


     bravais-lattice index     =            0
     lattice parameter (alat)  =       8.1258  a.u.
     unit-cell volume          =     536.5398 (a.u.)^3
     number of atoms/cell      =            4
     number of atomic types    =            1
     number of electrons       =        44.00
     number of Kohn-Sham states=           26
     kinetic-energy cutoff     =      40.0000  Ry
     charge density cutoff     =     160.0000  Ry
     convergence threshold     =      1.0E-08
     mixing beta               =       0.7000
     number of iterations used =            8  plain     mixing
     Exchange-correlation= SLA PW PBX PBC
                           (   1   4   3   4   0   0   0)
     nstep                     =           50


     celldm(1)=   8.125822  celldm(2)=   0.000000  celldm(3)=   0.000000
     celldm(4)=   0.000000  celldm(5)=   0.000000  celldm(6)=   0.000000

     crystal axes: (cart. coord. in units of alat)
               a(1) = (   1.000000   0.000000   0.000000 )  
               a(2) = (   0.000000   1.000000   0.000000 )  
               a(3) = (   0.000000   0.000000   1.000000 )  

     reciprocal axes: (cart. coord. in units 2 pi/alat)
               b(1) = (  1.000000  0.000000  0.000000 )  
               b(2) = (  0.000000  1.000000  0.000000 )  
               b(3) = (  0.000000  0.000000  1.000000 )  


     PseudoPot. # 1 for Au read from file:
     ./Au.potential.UPF
     MD5 check sum: 4db85c736373c707a97ce4c36c2a9d23
     Pseudo is Projector augmented-wave + core cor, Zval = 11.0
     Generated using "atomic" code by A. Dal Corso v.6.3
     Shape of augmentation charge: PSQ
     Using radial grid of 1279 points,  6 beta functions with: 
                l(1) =   0
                l(2) =   0
                l(3) =   1
                l(4) =   1
                l(5) =   2
                l(6) =   2
     Q(r) pseudized with 0 coefficients 


     atomic species   valence    mass     pseudopotential
        Au            11.00   196.97000     Au( 1.00)

     48 Sym. Ops., with inversion, found



   Cartesian axes

     site n.     atom                  positions (alat units)
         1           Au  tau(   1) = (   0.0000000   0.0000000   0.0000000  )
         2           Au  tau(   2) = (   0.5000000   0.5000000   0.0000000  )
         3           Au  tau(   3) = (   0.0000000   0.5000000   0.5000000  )
         4           Au  tau(   4) = (   0.5000000   0.0000000   0.5000000  )

     number of k points=    10  Gaussian smearing, width (Ry)=  0.0050
                       cart. coord. in units 2pi/alat
        k(    1) = (   0.0000000   0.0000000   0.0000000), wk =   0.0312500
        k(    2) = (   0.0000000   0.0000000   0.2500000), wk =   0.1875000
        k(    3) = (   0.0000000   0.0000000  -0.5000000), wk =   0.0937500
        k(    4) = (   0.0000000   0.2500000   0.2500000), wk =   0.3750000
        k(    5) = (   0.0000000   0.2500000  -0.5000000), wk =   0.3750000
        k(    6) = (   0.0000000  -0.5000000  -0.5000000), wk =   0.0937500
        k(    7) = (   0.2500000   0.2500000   0.2500000), wk =   0.2500000
        k(    8) = (   0.2500000   0.2500000  -0.5000000), wk =   0.3750000
        k(    9) = (   0.2500000  -0.5000000  -0.5000000), wk =   0.1875000
        k(   10) = (  -0.5000000  -0.5000000  -0.5000000), wk =   0.0312500

     Dense  grid:    18325 G-vectors     FFT dimensions: (  36,  36,  36)

     Estimated max dynamical RAM per process >      14.57 MB

     Estimated total dynamical RAM >      87.42 MB

     Initial potential from superposition of free atoms

     starting charge   43.99956, renormalised to   44.00000
     Starting wfcs are   36 randomized atomic wfcs
     Checking if some PAW data can be deallocated... 

     total cpu time spent up to now is        7.9 secs

     Self-consistent Calculation

     iteration #  1     ecut=    40.00 Ry     beta= 0.70
     Davidson diagonalization with overlap
     ethr =  1.00E-02,  avg # of iterations =  2.6

     Threshold (ethr) on eigenvalues was too large:
     Diagonalizing with lowered threshold

     Davidson diagonalization with overlap
     ethr =  3.28E-04,  avg # of iterations =  3.7

     total cpu time spent up to now is       14.2 secs

     total energy              =   -3100.44035946 Ry
     Harris-Foulkes estimate   =   -3100.59990029 Ry
     estimated scf accuracy    <       0.22755888 Ry

     iteration #  2     ecut=    40.00 Ry     beta= 0.70
     Davidson diagonalization with overlap
     ethr =  5.17E-04,  avg # of iterations =  3.1

     total cpu time spent up to now is       18.0 secs

     total energy              =   -3100.50832581 Ry
     Harris-Foulkes estimate   =   -3100.55830719 Ry
     estimated scf accuracy    <       0.08539556 Ry

     iteration #  3     ecut=    40.00 Ry     beta= 0.70
     Davidson diagonalization with overlap
     ethr =  1.94E-04,  avg # of iterations =  3.1

     total cpu time spent up to now is       21.6 secs

     total energy              =   -3100.52855946 Ry
     Harris-Foulkes estimate   =   -3100.52911919 Ry
     estimated scf accuracy    <       0.00149723 Ry

     iteration #  4     ecut=    40.00 Ry     beta= 0.70
     Davidson diagonalization with overlap
     ethr =  3.40E-06,  avg # of iterations =  4.3

     total cpu time spent up to now is       26.4 secs

     total energy              =   -3100.53026770 Ry
     Harris-Foulkes estimate   =   -3100.53192578 Ry
     estimated scf accuracy    <       0.00478152 Ry

     iteration #  5     ecut=    40.00 Ry     beta= 0.70
     Davidson diagonalization with overlap
     ethr =  3.40E-06,  avg # of iterations =  2.2

     total cpu time spent up to now is       29.6 secs

     total energy              =   -3100.53010588 Ry
     Harris-Foulkes estimate   =   -3100.53063821 Ry
     estimated scf accuracy    <       0.00121714 Ry

     iteration #  6     ecut=    40.00 Ry     beta= 0.70
     Davidson diagonalization with overlap
     ethr =  2.77E-06,  avg # of iterations =  2.0

     total cpu time spent up to now is       32.5 secs

     total energy              =   -3100.53023364 Ry
     Harris-Foulkes estimate   =   -3100.53023331 Ry
     estimated scf accuracy    <       0.00015402 Ry

     iteration #  7     ecut=    40.00 Ry     beta= 0.70
     Davidson diagonalization with overlap
     ethr =  3.50E-07,  avg # of iterations =  3.3

     total cpu time spent up to now is       36.6 secs

     total energy              =   -3100.53027144 Ry
     Harris-Foulkes estimate   =   -3100.53029441 Ry
     estimated scf accuracy    <       0.00007565 Ry

     iteration #  8     ecut=    40.00 Ry     beta= 0.70
     Davidson diagonalization with overlap
     ethr =  1.72E-07,  avg # of iterations =  2.1

     total cpu time spent up to now is       39.6 secs

     total energy              =   -3100.53026048 Ry
     Harris-Foulkes estimate   =   -3100.53027547 Ry
     estimated scf accuracy    <       0.00002689 Ry

     iteration #  9     ecut=    40.00 Ry     beta= 0.70
     Davidson diagonalization with overlap
     ethr =  6.11E-08,  avg # of iterations =  3.4

     total cpu time spent up to now is       43.5 secs

     total energy              =   -3100.53026862 Ry
     Harris-Foulkes estimate   =   -3100.53026864 Ry
     estimated scf accuracy    <       0.00000020 Ry

     iteration # 10     ecut=    40.00 Ry     beta= 0.70
     Davidson diagonalization with overlap
     ethr =  4.55E-10,  avg # of iterations =  4.9

     total cpu time spent up to now is       48.4 secs

     total energy              =   -3100.53026911 Ry
     Harris-Foulkes estimate   =   -3100.53026918 Ry
     estimated scf accuracy    <       0.00000015 Ry

     iteration # 11     ecut=    40.00 Ry     beta= 0.70
     Davidson diagonalization with overlap
     ethr =  3.51E-10,  avg # of iterations =  1.6

     total cpu time spent up to now is       51.3 secs

     total energy              =   -3100.53026915 Ry
     Harris-Foulkes estimate   =   -3100.53026913 Ry
     estimated scf accuracy    <       0.00000001 Ry

     iteration # 12     ecut=    40.00 Ry     beta= 0.70
     Davidson diagonalization with overlap
     ethr =  3.37E-11,  avg # of iterations =  4.3

     total cpu time spent up to now is       56.1 secs

     total energy              =   -3100.53026914 Ry
     Harris-Foulkes estimate   =   -3100.53026919 Ry
     estimated scf accuracy    <       0.00000013 Ry

     iteration # 13     ecut=    40.00 Ry     beta= 0.70
     Davidson diagonalization with overlap
     ethr =  3.37E-11,  avg # of iterations =  2.9

     total cpu time spent up to now is       59.7 secs

     total energy              =   -3100.53026914 Ry
     Harris-Foulkes estimate   =   -3100.53026915 Ry
     estimated scf accuracy    <       0.00000004 Ry

     iteration # 14     ecut=    40.00 Ry     beta= 0.70
     Davidson diagonalization with overlap
     ethr =  3.37E-11,  avg # of iterations =  1.0

     total cpu time spent up to now is       62.5 secs

     total energy              =   -3100.53026914 Ry
     Harris-Foulkes estimate   =   -3100.53026915 Ry
     estimated scf accuracy    <       0.00000004 Ry

     iteration # 15     ecut=    40.00 Ry     beta= 0.70
     Davidson diagonalization with overlap
     ethr =  3.37E-11,  avg # of iterations =  1.0

     total cpu time spent up to now is       65.2 secs

     total energy              =   -3100.53026917 Ry
     Harris-Foulkes estimate   =   -3100.53026914 Ry
     estimated scf accuracy    <       0.00000004 Ry

     iteration # 16     ecut=    40.00 Ry     beta= 0.70
     Davidson diagonalization with overlap
     ethr =  3.37E-11,  avg # of iterations =  2.7

     total cpu time spent up to now is       68.7 secs

     total energy              =   -3100.53026912 Ry
     Harris-Foulkes estimate   =   -3100.53026918 Ry
     estimated scf accuracy    <       0.00000011 Ry

     iteration # 17     ecut=    40.00 Ry     beta= 0.70
     Davidson diagonalization with overlap
     ethr =  3.37E-11,  avg # of iterations =  4.0

     total cpu time spent up to now is       73.3 secs

     End of self-consistent calculation

          k = 0.0000 0.0000 0.0000 (  2301 PWs)   bands (ev):

     4.2857   6.8506   6.8506   6.8506   7.0870   7.0870   7.0870   8.6694
     8.6694   8.6694   9.8183   9.8183  10.6932  10.6933  10.6933  10.9740
    10.9740  10.9740  10.9740  10.9740  10.9740  14.0794  14.0794  14.0794
    17.2480  17.2480

          k = 0.0000 0.0000 0.2500 (  2284 PWs)   bands (ev):

     4.9073   6.9890   7.2190   7.2190   7.2925   7.4067   7.4067   8.4067
     8.9238   8.9238   9.5504   9.8176   9.8176   9.9392  10.3048  10.3048
    10.5171  10.5171  10.5573  10.9746  10.9747  11.1352  15.7128  15.7128
    16.9028  16.9028

          k = 0.0000 0.0000-0.5000 (  2272 PWs)   bands (ev):

     6.4352   6.4352   7.7429   7.7429   7.8215   7.8215   8.3511   8.3511
     8.3511   8.3511   9.2492   9.2492   9.6270   9.6270   9.6270   9.6270
     9.7450   9.7450  10.2407  10.2407  10.9754  10.9754  16.5823  16.5823
    18.4833  18.4833

          k = 0.0000 0.2500 0.2500 (  2286 PWs)   bands (ev):

     5.4712   7.3254   7.3986   7.3986   7.5737   7.5737   7.8331   8.3698
     8.9455   9.0089   9.1259   9.1259   9.3980   9.5305  10.0622  10.0824
    10.3084  10.3084  10.5093  10.5093  10.6450  12.6796  12.6796  15.9832
    16.9638  19.2478

          k = 0.0000 0.2500-0.5000 (  2300 PWs)   bands (ev):

     6.8578   6.8578   7.9240   7.9240   7.9889   7.9890   8.1827   8.1827
     8.3716   8.3716   8.7256   8.7256   9.6263   9.6263   9.7121   9.7122
     9.7523   9.7523  10.5084  10.5084  10.8451  10.8451  14.3546  14.3546
    19.0211  19.0211

          k = 0.0000-0.5000-0.5000 (  2296 PWs)   bands (ev):

     7.5871   7.5871   7.5872   7.5872   8.2936   8.2936   8.2937   8.2937
     8.5862   8.5862   8.5862   8.5862   9.3911   9.3911   9.3911   9.3911
     9.8315   9.8315   9.8315   9.8315  12.2025  12.2025  12.2025  12.2025
    20.3745  20.3745

          k = 0.2500 0.2500 0.2500 (  2292 PWs)   bands (ev):

     5.8776   7.3151   7.3151   7.3151   8.0648   8.0648   8.0648   8.6179
     8.8895   8.8895   8.9981   8.9981   8.9981   9.5900   9.5900   9.5900
     9.9593   9.9593  10.7979  10.7979  10.7979  13.4617  13.4617  13.4618
    17.5727  17.5727

          k = 0.2500 0.2500-0.5000 (  2314 PWs)   bands (ev):

     6.7770   6.7770   7.4309   7.4309   8.1940   8.1940   8.6604   8.6605
     8.6860   8.6860   9.0533   9.0533   9.0882   9.0882   9.3283   9.3284
    10.5587  10.5587  10.6346  10.6347  10.7925  10.7925  15.0648  15.0648
    15.1919  15.1919

          k = 0.2500-0.5000-0.5000 (  2300 PWs)   bands (ev):

     6.9188   6.9188   6.9188   6.9188   8.5438   8.5438   8.5438   8.5438
     8.9010   8.9010   8.9010   8.9011   9.6204   9.6204   9.6204   9.6205
    10.3995  10.3995  10.3995  10.3995  12.2472  12.2472  12.2472  12.2472
    17.0217  17.0217

          k =-0.5000-0.5000-0.5000 (  2320 PWs)   bands (ev):

     6.5898   6.5898   6.5898   6.5898   8.6486   8.6486   8.6486   8.6486
     8.6486   8.6486   8.6486   8.6486  10.7315  10.7315  10.7315  10.7315
    10.7315  10.7315  10.7315  10.7315  12.3541  12.3542  12.3542  12.3542
    14.9400  14.9400

     the Fermi energy is    12.5963 ev

!    total energy              =   -3100.53026913 Ry
     Harris-Foulkes estimate   =   -3100.53026913 Ry
     estimated scf accuracy    <          5.9E-09 Ry

     total all-electron energy =   -152095.914633 Ry

     The total energy is the sum of the following terms:

     one-electron contribution =      34.26790110 Ry
     hartree contribution      =      36.31824647 Ry
     xc contribution           =    -128.01655183 Ry
     ewald contribution        =    -273.08906626 Ry
     one-center paw contrib.   =   -2770.01056241 Ry
     smearing contrib. (-TS)   =      -0.00023620 Ry

     convergence has been achieved in  17 iterations

     Forces acting on atoms (cartesian axes, Ry/au):

     atom    1 type  1   force =     0.00000000    0.00000000    0.00000000
     atom    2 type  1   force =     0.00000000    0.00000000    0.00000000
     atom    3 type  1   force =     0.00000000    0.00000000    0.00000000
     atom    4 type  1   force =     0.00000000    0.00000000    0.00000000

     Total force =     0.000000     Total SCF correction =     0.000000


     Computing stress (Cartesian axis) and pressure

          total   stress  (Ry/bohr**3)                   (kbar)     P=     -106.46
  -0.00072373   0.00000000   0.00000000         -106.46        0.00        0.00
   0.00000000  -0.00072373   0.00000000            0.00     -106.46        0.00
   0.00000000   0.00000000  -0.00072373            0.00        0.00     -106.46


     BFGS Geometry Optimization

     bfgs converged in   1 scf cycles and   0 bfgs steps
     (criteria: energy <  1.0E-04 Ry, force <  1.0E-03 Ry/Bohr)

     End of BFGS Geometry Optimization

     Final energy   =   -3100.5302691265 Ry
Begin final coordinates

ATOMIC_POSITIONS (crystal)
Au            0.0000000000        0.0000000000        0.0000000000
Au            0.5000000000        0.5000000000        0.0000000000
Au            0.0000000000        0.5000000000        0.5000000000
Au            0.5000000000        0.0000000000        0.5000000000
End final coordinates



     Writing output data file ./gold.save/
 
     init_run     :      0.40s CPU      2.79s WALL (       1 calls)
     electrons    :      9.83s CPU     65.42s WALL (       1 calls)
     forces       :      0.05s CPU      0.32s WALL (       1 calls)
     stress       :      0.17s CPU      1.04s WALL (       1 calls)

     Called by init_run:
     wfcinit      :      0.13s CPU      0.87s WALL (       1 calls)
     potinit      :      0.15s CPU      1.05s WALL (       1 calls)
     hinit0       :      0.10s CPU      0.66s WALL (       1 calls)

     Called by electrons:
     c_bands      :      6.47s CPU     41.91s WALL (      18 calls)
     sum_band     :      0.85s CPU      5.71s WALL (      18 calls)
     v_of_rho     :      0.08s CPU      0.48s WALL (      18 calls)
     newd         :      0.13s CPU      1.20s WALL (      18 calls)
     PAW_pot      :      2.41s CPU     16.82s WALL (      18 calls)
     mix_rho      :      0.03s CPU      0.23s WALL (      18 calls)

     Called by c_bands:
     init_us_2    :      0.07s CPU      0.08s WALL (     390 calls)
     cegterg      :      6.08s CPU     41.07s WALL (     180 calls)

     Called by sum_band:
     sum_band:bec :      0.01s CPU      0.01s WALL (     180 calls)
     addusdens    :      0.13s CPU      1.04s WALL (      18 calls)

     Called by *egterg:
     h_psi        :      3.63s CPU     24.86s WALL (     712 calls)
     s_psi        :      0.10s CPU      0.10s WALL (     712 calls)
     g_psi        :      0.03s CPU      0.03s WALL (     522 calls)
     cdiaghg      :      1.74s CPU     11.79s WALL (     692 calls)

     Called by h_psi:
     h_psi:calbec :      0.18s CPU      1.71s WALL (     712 calls)
     vloc_psi     :      3.29s CPU     22.99s WALL (     712 calls)
     add_vuspsi   :      0.14s CPU      0.15s WALL (     712 calls)

     General routines
     calbec       :      0.25s CPU      2.42s WALL (     942 calls)
     fft          :      0.05s CPU      1.07s WALL (     224 calls)
     ffts         :      0.00s CPU      0.03s WALL (      18 calls)
     fftw         :      3.45s CPU     26.34s WALL (   32820 calls)
 
     Parallel routines
     fft_scatt_xy :      0.49s CPU      0.52s WALL (   33062 calls)
     fft_scatt_yz :      1.33s CPU     25.09s WALL (   33062 calls)
 
     PWSCF        :     11.34s CPU   1m15.14s WALL

 
   This run was terminated on:  12:34:31   9Jul2021            

=------------------------------------------------------------------------------=
   JOB DONE.
=------------------------------------------------------------------------------=
