
     Program PWSCF v.6.5 starts on 14Jul2021 at 15:56:21 

     This program is part of the open-source Quantum ESPRESSO suite
     for quantum simulation of materials; please cite
         "P. Giannozzi et al., J. Phys.:Condens. Matter 21 395502 (2009);
         "P. Giannozzi et al., J. Phys.:Condens. Matter 29 465901 (2017);
          URL http://www.quantum-espresso.org", 
     in publications or presentations arising from this work. More details at
     http://www.quantum-espresso.org/quote

     Parallel version (MPI & OpenMP), running on       6 processor cores
     Number of MPI processes:                 6
     Threads/MPI process:                     1

     MPI processes distributed on     1 nodes
     R & G space division:  proc/nbgrp/npool/nimage =       6
     Reading input from in
Warning: card &CELL ignored
Warning: card    CELL_DYNAMICS = 'BFGS' ignored
Warning: card / ignored

     Current dimensions of program PWSCF are:
     Max number of different atomic species (ntypx) = 10
     Max number of k-points (npk) =  40000
     Max angular momentum in pseudopotentials (lmaxx) =  3
               file Fe.potential.UPF: wavefunction(s)  3P 3D renormalized

     Subspace diagonalization in iterative solution of the eigenvalue problem:
     one sub-group per band group will be used
     scalapack distributed-memory algorithm (size of sub-group:  2*  2 procs)

     Found symmetry operation: I + ( -0.5000 -0.5000 -0.5000)
     This is a supercell, fractional translations are disabled
     Message from routine setup:
     using ibrav=0 with symmetry is DISCOURAGED, use correct ibrav instead
 
     Parallelization info
     --------------------
     sticks:   dense  smooth     PW     G-vecs:    dense   smooth      PW
     Min          59      59     20                  839      839     170
     Max          60      60     21                  843      843     171
     Sum         357     357    121                 5041     5041    1021
 


     bravais-lattice index     =            0
     lattice parameter (alat)  =       5.2912  a.u.
     unit-cell volume          =     148.1394 (a.u.)^3
     number of atoms/cell      =            2
     number of atomic types    =            1
     number of electrons       =        32.00
     number of Kohn-Sham states=           20
     kinetic-energy cutoff     =      40.0000  Ry
     charge density cutoff     =     160.0000  Ry
     convergence threshold     =      1.0E-08
     mixing beta               =       0.7000
     number of iterations used =            8  plain     mixing
     Exchange-correlation= SLA PW PBX PBC
                           (   1   4   3   4   0   0   0)
     nstep                     =           50


     celldm(1)=   5.291233  celldm(2)=   0.000000  celldm(3)=   0.000000
     celldm(4)=   0.000000  celldm(5)=   0.000000  celldm(6)=   0.000000

     crystal axes: (cart. coord. in units of alat)
               a(1) = (   1.000000   0.000000   0.000000 )  
               a(2) = (   0.000000   1.000000   0.000000 )  
               a(3) = (   0.000000   0.000000   1.000000 )  

     reciprocal axes: (cart. coord. in units 2 pi/alat)
               b(1) = (  1.000000  0.000000  0.000000 )  
               b(2) = (  0.000000  1.000000  0.000000 )  
               b(3) = (  0.000000  0.000000  1.000000 )  


     PseudoPot. # 1 for Fe read from file:
     ./Fe.potential.UPF
     MD5 check sum: fc81f059e5c5069939230b1155715ae8
     Pseudo is Projector augmented-wave + core cor, Zval = 16.0
     Generated using "atomic" code by A. Dal Corso v.6.3
     Shape of augmentation charge: PSQ
     Using radial grid of 1191 points,  6 beta functions with: 
                l(1) =   0
                l(2) =   0
                l(3) =   1
                l(4) =   1
                l(5) =   2
                l(6) =   2
     Q(r) pseudized with 0 coefficients 


     atomic species   valence    mass     pseudopotential
        Fe            16.00    55.84500     Fe( 1.00)

     Starting magnetic structure 
     atomic species   magnetization
        Fe           0.500

     48 Sym. Ops., with inversion, found



   Cartesian axes

     site n.     atom                  positions (alat units)
         1           Fe  tau(   1) = (   0.0000000   0.0000000   0.0000000  )
         2           Fe  tau(   2) = (   0.5000000   0.5000000   0.5000000  )

     number of k points=    10  Gaussian smearing, width (Ry)=  0.0050
                       cart. coord. in units 2pi/alat
        k(    1) = (   0.0000000   0.0000000   0.0000000), wk =   0.0156250
        k(    2) = (   0.0000000   0.0000000   0.2500000), wk =   0.0937500
        k(    3) = (   0.0000000   0.0000000  -0.5000000), wk =   0.0468750
        k(    4) = (   0.0000000   0.2500000   0.2500000), wk =   0.1875000
        k(    5) = (   0.0000000   0.2500000  -0.5000000), wk =   0.1875000
        k(    6) = (   0.0000000  -0.5000000  -0.5000000), wk =   0.0468750
        k(    7) = (   0.2500000   0.2500000   0.2500000), wk =   0.1250000
        k(    8) = (   0.2500000   0.2500000  -0.5000000), wk =   0.1875000
        k(    9) = (   0.2500000  -0.5000000  -0.5000000), wk =   0.0937500
        k(   10) = (  -0.5000000  -0.5000000  -0.5000000), wk =   0.0156250

     Dense  grid:     5041 G-vectors     FFT dimensions: (  24,  24,  24)

     Estimated max dynamical RAM per process >       5.05 MB

     Estimated total dynamical RAM >      30.27 MB
     Generating pointlists ...
     new r_m :   0.3572 (alat units)  1.8902 (a.u.) for type    1

     Check: negative core charge=   -0.000083

     Initial potential from superposition of free atoms

     starting charge   31.99912, renormalised to   32.00000
     Starting wfcs are   20 randomized atomic wfcs
     Checking if some PAW data can be deallocated... 

     total cpu time spent up to now is        5.5 secs

     Self-consistent Calculation

     iteration #  1     ecut=    40.00 Ry     beta= 0.70
     Davidson diagonalization with overlap
     ethr =  1.00E-02,  avg # of iterations =  3.4

     total cpu time spent up to now is       11.2 secs

     total energy              =    -657.88172232 Ry
     Harris-Foulkes estimate   =    -657.17856895 Ry
     estimated scf accuracy    <       1.23399757 Ry

     total magnetization       =     6.53 Bohr mag/cell
     absolute magnetization    =     6.69 Bohr mag/cell

     iteration #  2     ecut=    40.00 Ry     beta= 0.70
     Davidson diagonalization with overlap
     ethr =  3.86E-03,  avg # of iterations =  1.5

     total cpu time spent up to now is       15.0 secs

     total energy              =    -658.02350987 Ry
     Harris-Foulkes estimate   =    -657.97961536 Ry
     estimated scf accuracy    <       0.25083087 Ry

     total magnetization       =     5.78 Bohr mag/cell
     absolute magnetization    =     5.99 Bohr mag/cell

     iteration #  3     ecut=    40.00 Ry     beta= 0.70
     Davidson diagonalization with overlap
     ethr =  7.84E-04,  avg # of iterations =  3.0

     total cpu time spent up to now is       20.9 secs

     total energy              =    -658.02183935 Ry
     Harris-Foulkes estimate   =    -658.17036017 Ry
     estimated scf accuracy    <       0.45377669 Ry

     total magnetization       =     4.82 Bohr mag/cell
     absolute magnetization    =     5.05 Bohr mag/cell

     iteration #  4     ecut=    40.00 Ry     beta= 0.70
     Davidson diagonalization with overlap
     ethr =  7.84E-04,  avg # of iterations =  3.0

     total cpu time spent up to now is       26.7 secs

     total energy              =    -658.06071254 Ry
     Harris-Foulkes estimate   =    -658.17575270 Ry
     estimated scf accuracy    <       1.18671780 Ry

     total magnetization       =     4.19 Bohr mag/cell
     absolute magnetization    =     4.46 Bohr mag/cell

     iteration #  5     ecut=    40.00 Ry     beta= 0.70
     Davidson diagonalization with overlap
     ethr =  7.84E-04,  avg # of iterations =  1.6

     total cpu time spent up to now is       30.5 secs

     total energy              =    -658.11324406 Ry
     Harris-Foulkes estimate   =    -658.11053514 Ry
     estimated scf accuracy    <       0.01692824 Ry

     total magnetization       =     4.19 Bohr mag/cell
     absolute magnetization    =     4.51 Bohr mag/cell

     iteration #  6     ecut=    40.00 Ry     beta= 0.70
     Davidson diagonalization with overlap
     ethr =  5.29E-05,  avg # of iterations =  2.1

     total cpu time spent up to now is       34.9 secs

     total energy              =    -658.11709940 Ry
     Harris-Foulkes estimate   =    -658.11666288 Ry
     estimated scf accuracy    <       0.00154486 Ry

     total magnetization       =     4.00 Bohr mag/cell
     absolute magnetization    =     4.30 Bohr mag/cell

     iteration #  7     ecut=    40.00 Ry     beta= 0.70
     Davidson diagonalization with overlap
     ethr =  4.83E-06,  avg # of iterations =  2.4

     total cpu time spent up to now is       39.9 secs

     total energy              =    -658.11756269 Ry
     Harris-Foulkes estimate   =    -658.11805737 Ry
     estimated scf accuracy    <       0.00261556 Ry

     total magnetization       =     3.88 Bohr mag/cell
     absolute magnetization    =     4.15 Bohr mag/cell

     iteration #  8     ecut=    40.00 Ry     beta= 0.70
     Davidson diagonalization with overlap
     ethr =  4.83E-06,  avg # of iterations =  2.0

     total cpu time spent up to now is       44.2 secs

     total energy              =    -658.11802983 Ry
     Harris-Foulkes estimate   =    -658.11791087 Ry
     estimated scf accuracy    <       0.00085207 Ry

     total magnetization       =     3.97 Bohr mag/cell
     absolute magnetization    =     4.22 Bohr mag/cell

     iteration #  9     ecut=    40.00 Ry     beta= 0.70
     Davidson diagonalization with overlap
     ethr =  2.66E-06,  avg # of iterations =  1.1

     total cpu time spent up to now is       47.4 secs

     total energy              =    -658.11809524 Ry
     Harris-Foulkes estimate   =    -658.11808569 Ry
     estimated scf accuracy    <       0.00005694 Ry

     total magnetization       =     3.99 Bohr mag/cell
     absolute magnetization    =     4.23 Bohr mag/cell

     iteration # 10     ecut=    40.00 Ry     beta= 0.70
     Davidson diagonalization with overlap
     ethr =  1.78E-07,  avg # of iterations =  2.1

     total cpu time spent up to now is       51.9 secs

     total energy              =    -658.11810552 Ry
     Harris-Foulkes estimate   =    -658.11810855 Ry
     estimated scf accuracy    <       0.00001462 Ry

     total magnetization       =     4.00 Bohr mag/cell
     absolute magnetization    =     4.22 Bohr mag/cell

     iteration # 11     ecut=    40.00 Ry     beta= 0.70
     Davidson diagonalization with overlap
     ethr =  4.57E-08,  avg # of iterations =  1.8

     total cpu time spent up to now is       56.0 secs

     total energy              =    -658.11810806 Ry
     Harris-Foulkes estimate   =    -658.11811006 Ry
     estimated scf accuracy    <       0.00000600 Ry

     total magnetization       =     4.00 Bohr mag/cell
     absolute magnetization    =     4.21 Bohr mag/cell

     iteration # 12     ecut=    40.00 Ry     beta= 0.70
     Davidson diagonalization with overlap
     ethr =  1.88E-08,  avg # of iterations =  2.5

     total cpu time spent up to now is       61.2 secs

     total energy              =    -658.11811280 Ry
     Harris-Foulkes estimate   =    -658.11811276 Ry
     estimated scf accuracy    <       0.00000206 Ry

     total magnetization       =     4.00 Bohr mag/cell
     absolute magnetization    =     4.21 Bohr mag/cell

     iteration # 13     ecut=    40.00 Ry     beta= 0.70
     Davidson diagonalization with overlap
     ethr =  6.43E-09,  avg # of iterations =  1.6

     total cpu time spent up to now is       65.0 secs

     total energy              =    -658.11811270 Ry
     Harris-Foulkes estimate   =    -658.11811298 Ry
     estimated scf accuracy    <       0.00000197 Ry

     total magnetization       =     4.00 Bohr mag/cell
     absolute magnetization    =     4.21 Bohr mag/cell

     iteration # 14     ecut=    40.00 Ry     beta= 0.70
     Davidson diagonalization with overlap
     ethr =  6.15E-09,  avg # of iterations =  1.0

     total cpu time spent up to now is       68.1 secs

     total energy              =    -658.11811267 Ry
     Harris-Foulkes estimate   =    -658.11811280 Ry
     estimated scf accuracy    <       0.00000047 Ry

     total magnetization       =     4.00 Bohr mag/cell
     absolute magnetization    =     4.21 Bohr mag/cell

     iteration # 15     ecut=    40.00 Ry     beta= 0.70
     Davidson diagonalization with overlap
     ethr =  1.46E-09,  avg # of iterations =  1.9

     total cpu time spent up to now is       72.4 secs

     total energy              =    -658.11811277 Ry
     Harris-Foulkes estimate   =    -658.11811277 Ry
     estimated scf accuracy    <       0.00000001 Ry

     total magnetization       =     4.00 Bohr mag/cell
     absolute magnetization    =     4.21 Bohr mag/cell

     iteration # 16     ecut=    40.00 Ry     beta= 0.70
     Davidson diagonalization with overlap
     ethr =  4.30E-11,  avg # of iterations =  1.8
 
     Magnetic moment per site:
     atom:    1    charge:   14.3658    magn:    2.0368    constr:    0.0000
     atom:    2    charge:   14.3658    magn:    2.0369    constr:    0.0000

     total cpu time spent up to now is       76.4 secs

     End of self-consistent calculation

 ------ SPIN UP ------------


          k = 0.0000 0.0000 0.0000 (   619 PWs)   bands (ev):

   -69.2037 -69.0401 -35.0703 -35.0703 -35.0703 -34.8348 -34.8348 -34.8348
    10.4166  14.2428  14.2428  16.9431  16.9431  16.9431  18.2281  18.2281
    19.8926  19.8926  19.8926  29.1696

          k = 0.0000 0.0000 0.2500 (   647 PWs)   bands (ev):

   -69.1776 -69.0665 -35.1353 -35.1009 -35.1009 -34.9294 -34.8771 -34.8771
    11.6886  14.6516  14.6974  16.9365  16.9365  17.3102  17.6405  18.4502
    18.6606  18.6606  19.2204  24.1131

          k = 0.0000 0.0000-0.5000 (   642 PWs)   bands (ev):

   -69.1192 -69.1190 -35.0531 -35.0530 -34.9914 -34.9914 -34.9913 -34.9913
    14.3126  14.3127  16.1110  16.1111  17.4702  17.4702  17.4703  17.4703
    18.2311  18.2312  19.5367  19.5368

          k = 0.0000 0.2500 0.2500 (   634 PWs)   bands (ev):

   -69.1570 -69.0783 -35.1787 -35.0657 -35.0384 -34.9688 -34.8934 -34.8335
    12.7425  14.8115  15.4116  16.3348  16.8092  17.3730  18.0858  18.1487
    18.3122  18.3135  19.8694  24.3873

          k = 0.0000 0.2500-0.5000 (   628 PWs)   bands (ev):

   -69.1145 -69.1144 -35.1708 -35.1708 -34.9703 -34.9702 -34.8666 -34.8665
    14.4030  14.4030  16.3997  16.3997  16.5848  16.5849  18.0349  18.0349
    19.4314  19.4314  19.8190  19.8191

          k = 0.0000-0.5000-0.5000 (   624 PWs)   bands (ev):

   -69.1109 -69.1107 -35.2404 -35.2404 -34.9384 -34.9383 -34.8396 -34.8396
    14.1364  14.1364  15.8890  15.8890  18.2315  18.2315  18.4664  18.4666
    19.5218  19.5218  20.0985  20.0985

          k = 0.2500 0.2500 0.2500 (   630 PWs)   bands (ev):

   -69.1439 -69.0850 -35.1222 -35.1222 -35.1062 -34.9026 -34.9026 -34.8642
    13.7780  15.5936  15.5936  16.1160  16.1160  16.2633  18.1927  18.1927
    18.9792  18.9792  19.5278  26.4368

          k = 0.2500 0.2500-0.5000 (   630 PWs)   bands (ev):

   -69.1116 -69.1115 -35.1758 -35.1758 -35.0153 -35.0152 -34.8587 -34.8587
    15.0596  15.0596  15.8488  15.8489  16.4720  16.4721  18.2419  18.2420
    18.7433  18.7434  21.7298  21.7298

          k = 0.2500-0.5000-0.5000 (   636 PWs)   bands (ev):

   -69.1097 -69.1096 -35.1901 -35.1901 -34.9991 -34.9989 -34.9285 -34.9285
    14.9341  14.9341  15.6745  15.6745  17.2656  17.2656  18.3558  18.3558
    18.4189  18.4190  23.4529  23.4529

          k =-0.5000-0.5000-0.5000 (   624 PWs)   bands (ev):

   -69.1055 -69.1054 -35.0352 -35.0352 -35.0352 -35.0351 -35.0351 -35.0351
    15.9756  15.9756  15.9756  15.9757  15.9757  15.9757  18.4953  18.4953
    18.4955  18.4955  28.0080  28.0080

 ------ SPIN DOWN ----------


          k = 0.0000 0.0000 0.0000 (   619 PWs)   bands (ev):

   -66.7773 -66.6018 -32.7134 -32.7134 -32.7134 -32.4470 -32.4470 -32.4470
    10.5354  15.9864  15.9864  18.5927  18.5927  18.5927  20.9373  20.9373
    21.7916  21.7916  21.7916  29.3848

          k = 0.0000 0.0000 0.2500 (   647 PWs)   bands (ev):

   -66.7493 -66.6288 -32.7778 -32.7388 -32.7388 -32.5521 -32.4928 -32.4928
    11.8262  16.2144  16.5581  18.5514  18.5514  18.9915  20.1715  20.3627
    20.3627  21.0776  21.1942  25.0670

          k = 0.0000 0.0000-0.5000 (   642 PWs)   bands (ev):

   -66.6857 -66.6856 -32.6900 -32.6900 -32.6181 -32.6181 -32.6181 -32.6181
    14.8417  14.8417  18.2686  18.2687  19.0594  19.0594  19.0594  19.0594
    19.9951  19.9951  21.8690  21.8691

          k = 0.0000 0.2500 0.2500 (   634 PWs)   bands (ev):

   -66.7272 -66.6418 -32.8294 -32.6999 -32.6749 -32.5968 -32.5120 -32.4461
    12.9504  16.4314  17.0452  17.8865  18.3418  18.9585  19.9269  20.0691
    20.5603  21.0345  21.7827  25.4100

          k = 0.0000 0.2500-0.5000 (   628 PWs)   bands (ev):

   -66.6810 -66.6810 -32.8210 -32.8210 -32.5965 -32.5965 -32.4841 -32.4841
    15.2486  15.2486  17.9159  17.9159  18.1090  18.1090  20.1571  20.1571
    21.2906  21.2906  21.9056  21.9056

          k = 0.0000-0.5000-0.5000 (   624 PWs)   bands (ev):

   -66.6770 -66.6769 -32.8992 -32.8992 -32.5638 -32.5637 -32.4524 -32.4524
    15.2660  15.2660  17.3574  17.3574  19.6025  19.6025  20.6581  20.6581
    21.2366  21.2367  22.0275  22.0275

          k = 0.2500 0.2500 0.2500 (   630 PWs)   bands (ev):

   -66.7123 -66.6497 -32.7667 -32.7667 -32.7490 -32.5198 -32.5198 -32.4856
    14.0196  17.1782  17.1782  17.6257  17.6257  17.6364  20.8279  20.8279
    20.9658  20.9658  21.2280  27.4692

          k = 0.2500 0.2500-0.5000 (   630 PWs)   bands (ev):

   -66.6781 -66.6780 -32.8256 -32.8256 -32.6461 -32.6460 -32.4754 -32.4754
    15.9648  15.9648  17.3364  17.3364  17.7303  17.7304  20.5908  20.5908
    21.2512  21.2512  23.2211  23.2211

          k = 0.2500-0.5000-0.5000 (   636 PWs)   bands (ev):

   -66.6753 -66.6753 -32.8425 -32.8425 -32.6286 -32.6285 -32.5468 -32.5468
    16.0972  16.0972  17.0513  17.0513  18.1808  18.1808  20.9179  20.9179
    21.1987  21.1988  24.5356  24.5356

          k =-0.5000-0.5000-0.5000 (   624 PWs)   bands (ev):

   -66.6712 -66.6711 -32.6700 -32.6700 -32.6700 -32.6700 -32.6700 -32.6700
    17.1487  17.1487  17.1487  17.1487  17.1487  17.1487  21.2819  21.2819
    21.2819  21.2819  28.7992  28.7992

     the Fermi energy is    19.4917 ev

!    total energy              =    -658.11811277 Ry
     Harris-Foulkes estimate   =    -658.11811277 Ry
     estimated scf accuracy    <          1.1E-09 Ry

     total all-electron energy =     -5090.711179 Ry

     The total energy is the sum of the following terms:

     one-electron contribution =    -212.20529116 Ry
     hartree contribution      =     127.25140693 Ry
     xc contribution           =     -55.52262934 Ry
     ewald contribution        =    -352.14617570 Ry
     one-center paw contrib.   =    -165.49484614 Ry
     smearing contrib. (-TS)   =      -0.00057736 Ry

     total magnetization       =     4.00 Bohr mag/cell
     absolute magnetization    =     4.21 Bohr mag/cell

     convergence has been achieved in  16 iterations

     Forces acting on atoms (cartesian axes, Ry/au):

     atom    1 type  1   force =     0.00000000    0.00000000    0.00000000
     atom    2 type  1   force =     0.00000000    0.00000000    0.00000000

     Total force =     0.000000     Total SCF correction =     0.000000


     Computing stress (Cartesian axis) and pressure

          total   stress  (Ry/bohr**3)                   (kbar)     P=    -2675.97
  -0.01819091   0.00000000   0.00000000        -2675.97        0.00        0.00
   0.00000000  -0.01819091   0.00000000            0.00    -2675.97        0.00
   0.00000000   0.00000000  -0.01819091            0.00        0.00    -2675.97


     BFGS Geometry Optimization

     bfgs converged in   1 scf cycles and   0 bfgs steps
     (criteria: energy <  1.0E-04 Ry, force <  1.0E-03 Ry/Bohr)

     End of BFGS Geometry Optimization

     Final energy   =    -658.1181127720 Ry
Begin final coordinates

ATOMIC_POSITIONS (crystal)
Fe            0.0000000000        0.0000000000        0.0000000000
Fe            0.5000000000        0.5000000000        0.5000000000
End final coordinates



     Writing output data file ./iron.save/
 
     init_run     :      0.34s CPU      2.17s WALL (       1 calls)
     electrons    :     11.01s CPU     70.97s WALL (       1 calls)
     forces       :      0.02s CPU      0.13s WALL (       1 calls)
     stress       :      0.05s CPU      0.29s WALL (       1 calls)

     Called by init_run:
     wfcinit      :      0.14s CPU      0.90s WALL (       1 calls)
     potinit      :      0.14s CPU      0.89s WALL (       1 calls)
     hinit0       :      0.05s CPU      0.31s WALL (       1 calls)

     Called by electrons:
     c_bands      :      8.41s CPU     54.81s WALL (      16 calls)
     sum_band     :      0.38s CPU      2.54s WALL (      16 calls)
     v_of_rho     :      0.05s CPU      0.30s WALL (      17 calls)
     newd         :      0.04s CPU      0.24s WALL (      17 calls)
     PAW_pot      :      2.23s CPU     13.72s WALL (      17 calls)
     mix_rho      :      0.02s CPU      0.17s WALL (      16 calls)

     Called by c_bands:
     init_us_2    :      0.02s CPU      0.02s WALL (     700 calls)
     cegterg      :      8.30s CPU     54.39s WALL (     320 calls)

     Called by sum_band:
     sum_band:bec :      0.00s CPU      0.00s WALL (     320 calls)
     addusdens    :      0.06s CPU      0.07s WALL (      16 calls)

     Called by *egterg:
     h_psi        :      1.30s CPU      8.90s WALL (     994 calls)
     s_psi        :      0.01s CPU      0.01s WALL (     994 calls)
     g_psi        :      0.00s CPU      0.00s WALL (     654 calls)
     cdiaghg      :      6.29s CPU     40.92s WALL (     974 calls)

     Called by h_psi:
     h_psi:calbec :      0.09s CPU      0.74s WALL (     994 calls)
     vloc_psi     :      1.18s CPU      8.13s WALL (     994 calls)
     add_vuspsi   :      0.02s CPU      0.02s WALL (     994 calls)

     General routines
     calbec       :      0.12s CPU      1.15s WALL (    1414 calls)
     fft          :      0.03s CPU      0.43s WALL (     399 calls)
     ffts         :      0.00s CPU      0.03s WALL (      32 calls)
     fftw         :      1.32s CPU      9.77s WALL (   35970 calls)
 
     Parallel routines
     fft_scatt_xy :      0.17s CPU      0.18s WALL (   36401 calls)
     fft_scatt_yz :      0.70s CPU      9.53s WALL (   36401 calls)
 
     PWSCF        :     12.05s CPU   1m17.55s WALL

 
   This run was terminated on:  15:57:38  14Jul2021            

=------------------------------------------------------------------------------=
   JOB DONE.
=------------------------------------------------------------------------------=
