
     Program PWSCF v.6.5 starts on 14Jul2021 at 17:35: 8 

     This program is part of the open-source Quantum ESPRESSO suite
     for quantum simulation of materials; please cite
         "P. Giannozzi et al., J. Phys.:Condens. Matter 21 395502 (2009);
         "P. Giannozzi et al., J. Phys.:Condens. Matter 29 465901 (2017);
          URL http://www.quantum-espresso.org", 
     in publications or presentations arising from this work. More details at
     http://www.quantum-espresso.org/quote

     Parallel version (MPI & OpenMP), running on       6 processor cores
     Number of MPI processes:                 6
     Threads/MPI process:                     1

     MPI processes distributed on     1 nodes
     R & G space division:  proc/nbgrp/npool/nimage =       6
     Reading input from in
Warning: card &CELL ignored
Warning: card    CELL_DYNAMICS = 'BFGS' ignored
Warning: card / ignored

     Current dimensions of program PWSCF are:
     Max number of different atomic species (ntypx) = 10
     Max number of k-points (npk) =  40000
     Max angular momentum in pseudopotentials (lmaxx) =  3
               file Na.potential.UPF: wavefunction(s)  2P renormalized
               file Cl.potential.UPF: wavefunction(s)  3S 3P renormalized

     Subspace diagonalization in iterative solution of the eigenvalue problem:
     one sub-group per band group will be used
     scalapack distributed-memory algorithm (size of sub-group:  2*  2 procs)

     Found symmetry operation: I + (  0.0000 -0.5000 -0.5000)
     This is a supercell, fractional translations are disabled
     Message from routine setup:
     using ibrav=0 with symmetry is DISCOURAGED, use correct ibrav instead
 
     Parallelization info
     --------------------
     sticks:   dense  smooth     PW     G-vecs:    dense   smooth      PW
     Min         238     238     70                 6746     6746    1066
     Max         239     239     71                 6749     6749    1069
     Sum        1433    1433    421                40483    40483    6403
 


     bravais-lattice index     =            0
     lattice parameter (alat)  =      10.5825  a.u.
     unit-cell volume          =    1185.1155 (a.u.)^3
     number of atoms/cell      =            8
     number of atomic types    =            2
     number of electrons       =        64.00
     number of Kohn-Sham states=           32
     kinetic-energy cutoff     =      40.0000  Ry
     charge density cutoff     =     160.0000  Ry
     convergence threshold     =      1.0E-08
     mixing beta               =       0.7000
     number of iterations used =            8  plain     mixing
     Exchange-correlation= SLA PW PBX PBC
                           (   1   4   3   4   0   0   0)
     nstep                     =           50


     celldm(1)=  10.582466  celldm(2)=   0.000000  celldm(3)=   0.000000
     celldm(4)=   0.000000  celldm(5)=   0.000000  celldm(6)=   0.000000

     crystal axes: (cart. coord. in units of alat)
               a(1) = (   1.000000   0.000000   0.000000 )  
               a(2) = (   0.000000   1.000000   0.000000 )  
               a(3) = (   0.000000   0.000000   1.000000 )  

     reciprocal axes: (cart. coord. in units 2 pi/alat)
               b(1) = (  1.000000  0.000000  0.000000 )  
               b(2) = (  0.000000  1.000000  0.000000 )  
               b(3) = (  0.000000  0.000000  1.000000 )  


     PseudoPot. # 1 for Na read from file:
     ./Na.potential.UPF
     MD5 check sum: 05b4deb74e3932c23ab016979dc8b5d4
     Pseudo is Projector augmented-wave + core cor, Zval =  9.0
     Generated using "atomic" code by A. Dal Corso v.6.3
     Shape of augmentation charge: PSQ
     Using radial grid of 1121 points,  4 beta functions with: 
                l(1) =   0
                l(2) =   0
                l(3) =   1
                l(4) =   1
     Q(r) pseudized with 0 coefficients 


     PseudoPot. # 2 for Cl read from file:
     ./Cl.potential.UPF
     MD5 check sum: 530da96d25dcb7781b0586ca00827062
     Pseudo is Projector augmented-wave + core cor, Zval =  7.0
     Generated using "atomic" code by A. Dal Corso v.6.3
     Shape of augmentation charge: PSQ
     Using radial grid of 1157 points,  6 beta functions with: 
                l(1) =   0
                l(2) =   0
                l(3) =   1
                l(4) =   1
                l(5) =   2
                l(6) =   2
     Q(r) pseudized with 0 coefficients 


     atomic species   valence    mass     pseudopotential
        Na             9.00    22.99000     Na( 1.00)
        Cl             7.00    35.45300     Cl( 1.00)

     48 Sym. Ops., with inversion, found



   Cartesian axes

     site n.     atom                  positions (alat units)
         1           Na  tau(   1) = (   0.0000000   0.0000000   0.0000000  )
         2           Na  tau(   2) = (   0.0000000   0.5000000   0.5000000  )
         3           Na  tau(   3) = (   0.5000000   0.0000000   0.5000000  )
         4           Na  tau(   4) = (   0.5000000   0.5000000   0.0000000  )
         5           Cl  tau(   5) = (   0.5000000   0.0000000   0.0000000  )
         6           Cl  tau(   6) = (   0.5000000   0.5000000   0.5000000  )
         7           Cl  tau(   7) = (   0.0000000   0.0000000   0.5000000  )
         8           Cl  tau(   8) = (   0.0000000   0.5000000   0.0000000  )

     number of k points=     4
                       cart. coord. in units 2pi/alat
        k(    1) = (   0.0000000   0.0000000   0.0000000), wk =   0.2500000
        k(    2) = (   0.0000000   0.0000000  -0.5000000), wk =   0.7500000
        k(    3) = (   0.0000000  -0.5000000  -0.5000000), wk =   0.7500000
        k(    4) = (  -0.5000000  -0.5000000  -0.5000000), wk =   0.2500000

     Dense  grid:    40483 G-vectors     FFT dimensions: (  45,  45,  45)

     Estimated max dynamical RAM per process >      32.44 MB

     Estimated total dynamical RAM >     194.65 MB

     Check: negative core charge=   -0.000021

     Initial potential from superposition of free atoms

     starting charge   63.97480, renormalised to   64.00000
     Starting wfcs are   36 randomized atomic wfcs
     Checking if some PAW data can be deallocated... 

     total cpu time spent up to now is        7.4 secs

     Self-consistent Calculation

     iteration #  1     ecut=    40.00 Ry     beta= 0.70
     Davidson diagonalization with overlap
     ethr =  1.00E-02,  avg # of iterations =  1.0

     Threshold (ethr) on eigenvalues was too large:
     Diagonalizing with lowered threshold

     Davidson diagonalization with overlap
     ethr =  3.99E-04,  avg # of iterations =  1.8

     total cpu time spent up to now is       11.7 secs

     total energy              =    -755.17335262 Ry
     Harris-Foulkes estimate   =    -755.30392462 Ry
     estimated scf accuracy    <       0.21282121 Ry

     iteration #  2     ecut=    40.00 Ry     beta= 0.70
     Davidson diagonalization with overlap
     ethr =  3.33E-04,  avg # of iterations =  2.0

     total cpu time spent up to now is       14.9 secs

     total energy              =    -755.23254229 Ry
     Harris-Foulkes estimate   =    -755.26081243 Ry
     estimated scf accuracy    <       0.05191116 Ry

     iteration #  3     ecut=    40.00 Ry     beta= 0.70
     Davidson diagonalization with overlap
     ethr =  8.11E-05,  avg # of iterations =  2.0

     total cpu time spent up to now is       18.0 secs

     total energy              =    -755.24442028 Ry
     Harris-Foulkes estimate   =    -755.24396491 Ry
     estimated scf accuracy    <       0.00100583 Ry

     iteration #  4     ecut=    40.00 Ry     beta= 0.70
     Davidson diagonalization with overlap
     ethr =  1.57E-06,  avg # of iterations =  2.0

     total cpu time spent up to now is       21.1 secs

     total energy              =    -755.24456496 Ry
     Harris-Foulkes estimate   =    -755.24456359 Ry
     estimated scf accuracy    <       0.00001314 Ry

     iteration #  5     ecut=    40.00 Ry     beta= 0.70
     Davidson diagonalization with overlap
     ethr =  2.05E-08,  avg # of iterations =  3.0

     total cpu time spent up to now is       25.3 secs

     total energy              =    -755.24457655 Ry
     Harris-Foulkes estimate   =    -755.24457570 Ry
     estimated scf accuracy    <       0.00000282 Ry

     iteration #  6     ecut=    40.00 Ry     beta= 0.70
     Davidson diagonalization with overlap
     ethr =  4.40E-09,  avg # of iterations =  2.0

     total cpu time spent up to now is       28.6 secs

     total energy              =    -755.24457732 Ry
     Harris-Foulkes estimate   =    -755.24457741 Ry
     estimated scf accuracy    <       0.00000028 Ry

     iteration #  7     ecut=    40.00 Ry     beta= 0.70
     Davidson diagonalization with overlap
     ethr =  4.36E-10,  avg # of iterations =  3.0

     total cpu time spent up to now is       32.2 secs

     End of self-consistent calculation

          k = 0.0000 0.0000 0.0000 (  5041 PWs)   bands (ev):

   -47.9073 -47.9064 -47.9062 -47.9062 -19.7009 -19.7009 -19.7009 -19.6999
   -19.6999 -19.6999 -19.6994 -19.6994 -19.6994 -19.6766 -19.6766 -19.6766
   -11.5521 -11.1466 -11.1464 -11.1464  -0.5465  -0.5465  -0.5465   0.5448
     0.5448   0.5448   0.5450   0.5450   0.5450   1.1566   1.1566   1.1566

          k = 0.0000 0.0000-0.5000 (  5078 PWs)   bands (ev):

   -47.9070 -47.9069 -47.9063 -47.9062 -19.7053 -19.7040 -19.7018 -19.7018
   -19.7016 -19.7016 -19.6995 -19.6995 -19.6989 -19.6989 -19.6910 -19.6898
   -11.3371 -11.3369 -11.1273 -11.1271  -0.0624  -0.0624  -0.0622  -0.0622
     0.0537   0.0539   0.3714   0.3716   0.8303   0.8303   0.8303   0.8303

          k = 0.0000-0.5000-0.5000 (  5056 PWs)   bands (ev):

   -47.9067 -47.9065 -47.9065 -47.9065 -19.7023 -19.7019 -19.7019 -19.7007
   -19.6991 -19.6991 -19.6983 -19.6975 -19.6914 -19.6909 -19.6909 -19.6897
   -11.2140 -11.2137 -11.2137 -11.2137  -0.3490  -0.3490  -0.3488  -0.3487
     0.3434   0.3437   0.3438   0.3438   0.8741   0.8742   0.8742   0.8743

          k =-0.5000-0.5000-0.5000 (  5040 PWs)   bands (ev):

   -47.9066 -47.9065 -47.9065 -47.9065 -19.7036 -19.7036 -19.7036 -19.7023
   -19.6924 -19.6924 -19.6924 -19.6918 -19.6918 -19.6918 -19.6908 -19.6908
   -11.1927 -11.1924 -11.1924 -11.1924  -0.8359  -0.8359  -0.8359  -0.8356
     0.8755   0.8755   0.8755   0.8755   0.8755   0.8757   0.8757   0.8757

     highest occupied level (ev):     1.1566

!    total energy              =    -755.24457736 Ry
     Harris-Foulkes estimate   =    -755.24457738 Ry
     estimated scf accuracy    <          4.8E-09 Ry

     total all-electron energy =     -4992.392637 Ry

     The total energy is the sum of the following terms:

     one-electron contribution =    -320.04542439 Ry
     hartree contribution      =     187.18230907 Ry
     xc contribution           =    -102.71707271 Ry
     ewald contribution        =    -277.18998173 Ry
     one-center paw contrib.   =    -242.47440760 Ry

     convergence has been achieved in   7 iterations

     Forces acting on atoms (cartesian axes, Ry/au):

     atom    1 type  1   force =     0.00000000    0.00000000    0.00000000
     atom    2 type  1   force =     0.00000000    0.00000000    0.00000000
     atom    3 type  1   force =     0.00000000    0.00000000    0.00000000
     atom    4 type  1   force =     0.00000000    0.00000000    0.00000000
     atom    5 type  2   force =     0.00000000    0.00000000    0.00000000
     atom    6 type  2   force =     0.00000000    0.00000000    0.00000000
     atom    7 type  2   force =     0.00000000    0.00000000    0.00000000
     atom    8 type  2   force =     0.00000000    0.00000000    0.00000000

     Total force =     0.000000     Total SCF correction =     0.000000


     Computing stress (Cartesian axis) and pressure

          total   stress  (Ry/bohr**3)                   (kbar)     P=     -118.81
  -0.00080765   0.00000000   0.00000000         -118.81        0.00        0.00
   0.00000000  -0.00080765   0.00000000            0.00     -118.81        0.00
   0.00000000   0.00000000  -0.00080765            0.00        0.00     -118.81


     BFGS Geometry Optimization

     bfgs converged in   1 scf cycles and   0 bfgs steps
     (criteria: energy <  1.0E-04 Ry, force <  1.0E-03 Ry/Bohr)

     End of BFGS Geometry Optimization

     Final energy   =    -755.2445773629 Ry
Begin final coordinates

ATOMIC_POSITIONS (crystal)
Na            0.0000000000        0.0000000000        0.0000000000
Na            0.0000000000        0.5000000000        0.5000000000
Na            0.5000000000        0.0000000000        0.5000000000
Na            0.5000000000        0.5000000000        0.0000000000
Cl            0.5000000000        0.0000000000        0.0000000000
Cl            0.5000000000        0.5000000000        0.5000000000
Cl            0.0000000000        0.0000000000        0.5000000000
Cl            0.0000000000        0.5000000000        0.0000000000
End final coordinates



     Writing output data file ./salt.save/
 
     init_run     :      0.40s CPU      2.63s WALL (       1 calls)
     electrons    :      3.94s CPU     24.81s WALL (       1 calls)
     forces       :      0.07s CPU      0.46s WALL (       1 calls)
     stress       :      0.27s CPU      1.68s WALL (       1 calls)

     Called by init_run:
     wfcinit      :      0.10s CPU      0.68s WALL (       1 calls)
     potinit      :      0.13s CPU      0.82s WALL (       1 calls)
     hinit0       :      0.12s CPU      0.77s WALL (       1 calls)

     Called by electrons:
     c_bands      :      2.56s CPU     15.99s WALL (       8 calls)
     sum_band     :      0.40s CPU      2.67s WALL (       8 calls)
     v_of_rho     :      0.06s CPU      0.35s WALL (       8 calls)
     newd         :      0.13s CPU      0.93s WALL (       8 calls)
     PAW_pot      :      0.92s CPU      5.61s WALL (       8 calls)
     mix_rho      :      0.01s CPU      0.09s WALL (       8 calls)

     Called by c_bands:
     init_us_2    :      0.03s CPU      0.03s WALL (      76 calls)
     cegterg      :      2.42s CPU     15.73s WALL (      32 calls)

     Called by sum_band:
     sum_band:bec :      0.00s CPU      0.00s WALL (      32 calls)
     addusdens    :      0.14s CPU      0.92s WALL (       8 calls)

     Called by *egterg:
     h_psi        :      1.19s CPU      8.07s WALL (     103 calls)
     s_psi        :      0.04s CPU      0.04s WALL (     103 calls)
     g_psi        :      0.01s CPU      0.01s WALL (      67 calls)
     cdiaghg      :      1.07s CPU      6.78s WALL (      95 calls)

     Called by h_psi:
     h_psi:calbec :      0.05s CPU      0.59s WALL (     103 calls)
     vloc_psi     :      1.08s CPU      7.40s WALL (     103 calls)
     add_vuspsi   :      0.05s CPU      0.05s WALL (     103 calls)

     General routines
     calbec       :      0.08s CPU      0.93s WALL (     155 calls)
     fft          :      0.05s CPU      0.68s WALL (     114 calls)
     ffts         :      0.00s CPU      0.02s WALL (       8 calls)
     fftw         :      1.18s CPU      8.62s WALL (    6592 calls)
 
     Parallel routines
     fft_scatt_xy :      0.15s CPU      0.16s WALL (    6714 calls)
     fft_scatt_yz :      0.37s CPU      8.43s WALL (    6714 calls)
 
     PWSCF        :      5.50s CPU     34.68s WALL

 
   This run was terminated on:  17:35:43  14Jul2021            

=------------------------------------------------------------------------------=
   JOB DONE.
=------------------------------------------------------------------------------=
