
     Program PWSCF v.6.5 starts on 11Jul2021 at 23:59:31 

     This program is part of the open-source Quantum ESPRESSO suite
     for quantum simulation of materials; please cite
         "P. Giannozzi et al., J. Phys.:Condens. Matter 21 395502 (2009);
         "P. Giannozzi et al., J. Phys.:Condens. Matter 29 465901 (2017);
          URL http://www.quantum-espresso.org", 
     in publications or presentations arising from this work. More details at
     http://www.quantum-espresso.org/quote

     Parallel version (MPI & OpenMP), running on       6 processor cores
     Number of MPI processes:                 6
     Threads/MPI process:                     1

     MPI processes distributed on     1 nodes
     R & G space division:  proc/nbgrp/npool/nimage =       6
     Reading input from in
Warning: card &CELL ignored
Warning: card    CELL_DYNAMICS = 'BFGS' ignored
Warning: card / ignored

     Current dimensions of program PWSCF are:
     Max number of different atomic species (ntypx) = 10
     Max number of k-points (npk) =  40000
     Max angular momentum in pseudopotentials (lmaxx) =  3
               file Fe.potential.UPF: wavefunction(s)  3P 3D renormalized

     Subspace diagonalization in iterative solution of the eigenvalue problem:
     one sub-group per band group will be used
     scalapack distributed-memory algorithm (size of sub-group:  2*  2 procs)

     Found symmetry operation: I + ( -0.5000 -0.5000 -0.5000)
     This is a supercell, fractional translations are disabled
     Message from routine setup:
     using ibrav=0 with symmetry is DISCOURAGED, use correct ibrav instead
 
     Parallelization info
     --------------------
     sticks:   dense  smooth     PW     G-vecs:    dense   smooth      PW
     Min          62      62     20                  928      928     174
     Max          63      63     22                  931      931     175
     Sum         377     377    129                 5575     5575    1045
 


     bravais-lattice index     =            0
     lattice parameter (alat)  =       5.4802  a.u.
     unit-cell volume          =     164.5851 (a.u.)^3
     number of atoms/cell      =            2
     number of atomic types    =            1
     number of electrons       =        32.00
     number of Kohn-Sham states=           20
     kinetic-energy cutoff     =      40.0000  Ry
     charge density cutoff     =     160.0000  Ry
     convergence threshold     =      1.0E-08
     mixing beta               =       0.7000
     number of iterations used =            8  plain     mixing
     Exchange-correlation= SLA PW PBX PBC
                           (   1   4   3   4   0   0   0)
     nstep                     =           50


     celldm(1)=   5.480206  celldm(2)=   0.000000  celldm(3)=   0.000000
     celldm(4)=   0.000000  celldm(5)=   0.000000  celldm(6)=   0.000000

     crystal axes: (cart. coord. in units of alat)
               a(1) = (   1.000000   0.000000   0.000000 )  
               a(2) = (   0.000000   1.000000   0.000000 )  
               a(3) = (   0.000000   0.000000   1.000000 )  

     reciprocal axes: (cart. coord. in units 2 pi/alat)
               b(1) = (  1.000000  0.000000  0.000000 )  
               b(2) = (  0.000000  1.000000  0.000000 )  
               b(3) = (  0.000000  0.000000  1.000000 )  


     PseudoPot. # 1 for Fe read from file:
     ./Fe.potential.UPF
     MD5 check sum: fc81f059e5c5069939230b1155715ae8
     Pseudo is Projector augmented-wave + core cor, Zval = 16.0
     Generated using "atomic" code by A. Dal Corso v.6.3
     Shape of augmentation charge: PSQ
     Using radial grid of 1191 points,  6 beta functions with: 
                l(1) =   0
                l(2) =   0
                l(3) =   1
                l(4) =   1
                l(5) =   2
                l(6) =   2
     Q(r) pseudized with 0 coefficients 


     atomic species   valence    mass     pseudopotential
        Fe            16.00    55.84500     Fe( 1.00)

     48 Sym. Ops., with inversion, found



   Cartesian axes

     site n.     atom                  positions (alat units)
         1           Fe  tau(   1) = (   0.0000000   0.0000000   0.0000000  )
         2           Fe  tau(   2) = (   0.5000000   0.5000000   0.5000000  )

     number of k points=    10  Gaussian smearing, width (Ry)=  0.0050
                       cart. coord. in units 2pi/alat
        k(    1) = (   0.0000000   0.0000000   0.0000000), wk =   0.0312500
        k(    2) = (   0.0000000   0.0000000   0.2500000), wk =   0.1875000
        k(    3) = (   0.0000000   0.0000000  -0.5000000), wk =   0.0937500
        k(    4) = (   0.0000000   0.2500000   0.2500000), wk =   0.3750000
        k(    5) = (   0.0000000   0.2500000  -0.5000000), wk =   0.3750000
        k(    6) = (   0.0000000  -0.5000000  -0.5000000), wk =   0.0937500
        k(    7) = (   0.2500000   0.2500000   0.2500000), wk =   0.2500000
        k(    8) = (   0.2500000   0.2500000  -0.5000000), wk =   0.3750000
        k(    9) = (   0.2500000  -0.5000000  -0.5000000), wk =   0.1875000
        k(   10) = (  -0.5000000  -0.5000000  -0.5000000), wk =   0.0312500

     Dense  grid:     5575 G-vectors     FFT dimensions: (  24,  24,  24)

     Estimated max dynamical RAM per process >       4.74 MB

     Estimated total dynamical RAM >      28.43 MB

     Check: negative core charge=   -0.000076

     Initial potential from superposition of free atoms

     starting charge   31.99912, renormalised to   32.00000
     Starting wfcs are   20 randomized atomic wfcs
     Checking if some PAW data can be deallocated... 

     total cpu time spent up to now is        6.1 secs

     Self-consistent Calculation

     iteration #  1     ecut=    40.00 Ry     beta= 0.70
     Davidson diagonalization with overlap
     ethr =  1.00E-02,  avg # of iterations =  3.4

     Threshold (ethr) on eigenvalues was too large:
     Diagonalizing with lowered threshold

     Davidson diagonalization with overlap
     ethr =  3.00E-04,  avg # of iterations =  2.1

     total cpu time spent up to now is        8.3 secs

     total energy              =    -657.96114450 Ry
     Harris-Foulkes estimate   =    -658.05096135 Ry
     estimated scf accuracy    <       0.12709932 Ry

     iteration #  2     ecut=    40.00 Ry     beta= 0.70
     Davidson diagonalization with overlap
     ethr =  3.97E-04,  avg # of iterations =  3.1

     total cpu time spent up to now is        9.8 secs

     total energy              =    -657.94783531 Ry
     Harris-Foulkes estimate   =    -658.12609797 Ry
     estimated scf accuracy    <       0.47939090 Ry

     iteration #  3     ecut=    40.00 Ry     beta= 0.70
     Davidson diagonalization with overlap
     ethr =  3.97E-04,  avg # of iterations =  3.1

     total cpu time spent up to now is       11.3 secs

     total energy              =    -657.96888792 Ry
     Harris-Foulkes estimate   =    -658.07555228 Ry
     estimated scf accuracy    <       1.89058928 Ry

     iteration #  4     ecut=    40.00 Ry     beta= 0.70
     Davidson diagonalization with overlap
     ethr =  3.97E-04,  avg # of iterations =  2.0

     total cpu time spent up to now is       12.4 secs

     total energy              =    -658.03052574 Ry
     Harris-Foulkes estimate   =    -658.03040460 Ry
     estimated scf accuracy    <       0.00294803 Ry

     iteration #  5     ecut=    40.00 Ry     beta= 0.70
     Davidson diagonalization with overlap
     ethr =  9.21E-06,  avg # of iterations =  1.7

     total cpu time spent up to now is       13.6 secs

     total energy              =    -658.03076709 Ry
     Harris-Foulkes estimate   =    -658.03078726 Ry
     estimated scf accuracy    <       0.00052517 Ry

     iteration #  6     ecut=    40.00 Ry     beta= 0.70
     Davidson diagonalization with overlap
     ethr =  1.64E-06,  avg # of iterations =  1.0

     total cpu time spent up to now is       14.6 secs

     total energy              =    -658.03075614 Ry
     Harris-Foulkes estimate   =    -658.03077365 Ry
     estimated scf accuracy    <       0.00023729 Ry

     iteration #  7     ecut=    40.00 Ry     beta= 0.70
     Davidson diagonalization with overlap
     ethr =  7.42E-07,  avg # of iterations =  1.0

     total cpu time spent up to now is       15.6 secs

     total energy              =    -658.03076233 Ry
     Harris-Foulkes estimate   =    -658.03076332 Ry
     estimated scf accuracy    <       0.00001407 Ry

     iteration #  8     ecut=    40.00 Ry     beta= 0.70
     Davidson diagonalization with overlap
     ethr =  4.40E-08,  avg # of iterations =  2.0

     total cpu time spent up to now is       16.7 secs

     total energy              =    -658.03076324 Ry
     Harris-Foulkes estimate   =    -658.03076323 Ry
     estimated scf accuracy    <       0.00000009 Ry

     iteration #  9     ecut=    40.00 Ry     beta= 0.70
     Davidson diagonalization with overlap
     ethr =  2.66E-10,  avg # of iterations =  3.1

     total cpu time spent up to now is       18.1 secs

     total energy              =    -658.03076326 Ry
     Harris-Foulkes estimate   =    -658.03076329 Ry
     estimated scf accuracy    <       0.00000033 Ry

     iteration # 10     ecut=    40.00 Ry     beta= 0.70
     Davidson diagonalization with overlap
     ethr =  2.66E-10,  avg # of iterations =  1.3

     total cpu time spent up to now is       19.1 secs

     total energy              =    -658.03076327 Ry
     Harris-Foulkes estimate   =    -658.03076327 Ry
     estimated scf accuracy    <       0.00000001 Ry

     iteration # 11     ecut=    40.00 Ry     beta= 0.70
     Davidson diagonalization with overlap
     ethr =  4.51E-11,  avg # of iterations =  1.3

     total cpu time spent up to now is       20.2 secs

     End of self-consistent calculation

          k = 0.0000 0.0000 0.0000 (   739 PWs)   bands (ev):

   -70.4294 -70.3253 -36.4104 -36.4104 -36.4104 -36.1784 -36.1784 -36.1784
     8.7269  13.1635  13.1635  15.5195  15.5195  15.5195  16.8359  16.8359
    17.7951  17.7951  17.7951  26.1849

          k = 0.0000 0.0000 0.2500 (   699 PWs)   bands (ev):

   -70.4090 -70.3340 -36.3329 -36.3329 -36.3087 -36.1999 -36.1591 -36.1591
     9.9264  13.5578  13.7283  15.5987  15.5987  15.9545  16.4432  17.1506
    17.1506  17.2025  17.5348  21.6561

          k = 0.0000 0.0000-0.5000 (   708 PWs)   bands (ev):

   -70.3705 -70.3705 -36.3036 -36.3036 -36.2469 -36.2469 -36.2469 -36.2469
    12.6462  12.6462  15.0656  15.0656  15.9345  15.9345  15.9345  15.9345
    16.7580  16.7580  17.9713  17.9713

          k = 0.0000 0.2500 0.2500 (   708 PWs)   bands (ev):

   -70.3969 -70.3444 -36.4215 -36.3140 -36.3034 -36.2388 -36.1861 -36.1411
    10.9573  13.7243  14.2362  15.0182  15.3279  15.9727  16.4942  16.7886
    16.7899  17.0540  17.9733  21.9484

          k = 0.0000 0.2500-0.5000 (   712 PWs)   bands (ev):

   -70.3690 -70.3689 -36.3964 -36.3964 -36.2668 -36.2668 -36.1704 -36.1704
    12.9297  12.9297  14.9959  14.9959  15.1788  15.1788  16.6047  16.6047
    17.6102  17.6102  18.1307  18.1307

          k = 0.0000-0.5000-0.5000 (   680 PWs)   bands (ev):

   -70.3639 -70.3638 -36.3841 -36.3841 -36.2291 -36.2291 -36.1172 -36.1172
    12.9019  12.9019  14.5063  14.5063  17.0161  17.0161  17.2401  17.2401
    17.4074  17.4074  18.3110  18.3110

          k = 0.2500 0.2500 0.2500 (   702 PWs)   bands (ev):

   -70.3884 -70.3480 -36.3789 -36.3458 -36.3458 -36.1808 -36.1808 -36.1661
    11.9500  14.3922  14.3922  14.7726  14.7726  14.8071  16.9883  16.9883
    17.3667  17.3667  17.6732  23.8256

          k = 0.2500 0.2500-0.5000 (   706 PWs)   bands (ev):

   -70.3665 -70.3665 -36.3834 -36.3833 -36.2709 -36.2709 -36.1773 -36.1773
    13.5569  13.5569  14.5526  14.5526  14.9995  14.9995  16.8067  16.8067
    17.3400  17.3400  19.6292  19.6292

          k = 0.2500-0.5000-0.5000 (   688 PWs)   bands (ev):

   -70.3634 -70.3634 -36.3830 -36.3830 -36.2589 -36.2588 -36.1531 -36.1531
    13.6185  13.6185  14.4328  14.4328  15.4874  15.4874  17.1462  17.1463
    17.4005  17.4005  21.0541  21.0541

          k =-0.5000-0.5000-0.5000 (   672 PWs)   bands (ev):

   -70.3608 -70.3608 -36.2568 -36.2568 -36.2568 -36.2568 -36.2568 -36.2568
    14.5230  14.5230  14.5230  14.5230  14.5230  14.5230  17.4053  17.4053
    17.4053  17.4053  25.2683  25.2683

     the Fermi energy is    17.0733 ev

!    total energy              =    -658.03076327 Ry
     Harris-Foulkes estimate   =    -658.03076327 Ry
     estimated scf accuracy    <          3.3E-10 Ry

     total all-electron energy =     -5090.623829 Ry

     The total energy is the sum of the following terms:

     one-electron contribution =    -231.38208753 Ry
     hartree contribution      =     133.98017802 Ry
     xc contribution           =     -55.12229902 Ry
     ewald contribution        =    -340.00320412 Ry
     one-center paw contrib.   =    -165.50226321 Ry
     smearing contrib. (-TS)   =      -0.00108741 Ry

     convergence has been achieved in  11 iterations

     Forces acting on atoms (cartesian axes, Ry/au):

     atom    1 type  1   force =     0.00000000    0.00000000    0.00000000
     atom    2 type  1   force =     0.00000000    0.00000000    0.00000000

     Total force =     0.000000     Total SCF correction =     0.000000


     Computing stress (Cartesian axis) and pressure

          total   stress  (Ry/bohr**3)                   (kbar)     P=    -2713.97
  -0.01844920   0.00000000   0.00000000        -2713.97        0.00        0.00
   0.00000000  -0.01844920   0.00000000            0.00    -2713.97        0.00
   0.00000000   0.00000000  -0.01844920            0.00        0.00    -2713.97


     BFGS Geometry Optimization

     bfgs converged in   1 scf cycles and   0 bfgs steps
     (criteria: energy <  1.0E-04 Ry, force <  1.0E-03 Ry/Bohr)

     End of BFGS Geometry Optimization

     Final energy   =    -658.0307632697 Ry
Begin final coordinates

ATOMIC_POSITIONS (crystal)
Fe            0.0000000000        0.0000000000        0.0000000000
Fe            0.5000000000        0.5000000000        0.5000000000
End final coordinates



     Writing output data file ./iron.save/
 
     init_run     :      0.18s CPU      1.87s WALL (       1 calls)
     electrons    :      2.11s CPU     14.16s WALL (       1 calls)
     forces       :      0.01s CPU      0.09s WALL (       1 calls)
     stress       :      0.04s CPU      0.27s WALL (       1 calls)

     Called by init_run:
     wfcinit      :      0.04s CPU      0.49s WALL (       1 calls)
     potinit      :      0.07s CPU      0.45s WALL (       1 calls)
     hinit0       :      0.07s CPU      0.73s WALL (       1 calls)

     Called by electrons:
     c_bands      :      1.21s CPU      8.46s WALL (      12 calls)
     sum_band     :      0.16s CPU      1.05s WALL (      12 calls)
     v_of_rho     :      0.02s CPU      0.11s WALL (      12 calls)
     newd         :      0.02s CPU      0.29s WALL (      12 calls)
     PAW_pot      :      0.76s CPU      4.70s WALL (      12 calls)
     mix_rho      :      0.01s CPU      0.05s WALL (      12 calls)

     Called by c_bands:
     init_us_2    :      0.01s CPU      0.01s WALL (     270 calls)
     cegterg      :      1.16s CPU      8.31s WALL (     120 calls)

     Called by sum_band:
     sum_band:bec :      0.00s CPU      0.00s WALL (     120 calls)
     addusdens    :      0.03s CPU      0.03s WALL (      12 calls)

     Called by *egterg:
     h_psi        :      0.53s CPU      4.00s WALL (     381 calls)
     s_psi        :      0.01s CPU      0.01s WALL (     381 calls)
     g_psi        :      0.00s CPU      0.00s WALL (     251 calls)
     cdiaghg      :      0.54s CPU      3.91s WALL (     361 calls)

     Called by h_psi:
     h_psi:calbec :      0.02s CPU      0.38s WALL (     381 calls)
     vloc_psi     :      0.50s CPU      3.60s WALL (     381 calls)
     add_vuspsi   :      0.01s CPU      0.01s WALL (     381 calls)

     General routines
     calbec       :      0.03s CPU      0.56s WALL (     551 calls)
     fft          :      0.01s CPU      0.53s WALL (     158 calls)
     ffts         :      0.00s CPU      0.01s WALL (      12 calls)
     fftw         :      0.56s CPU      4.28s WALL (   13818 calls)
 
     Parallel routines
     fft_scatt_xy :      0.06s CPU      0.07s WALL (   13988 calls)
     fft_scatt_yz :      0.29s CPU      4.28s WALL (   13988 calls)
 
     PWSCF        :      3.04s CPU     20.82s WALL

 
   This run was terminated on:  23:59:52  11Jul2021            

=------------------------------------------------------------------------------=
   JOB DONE.
=------------------------------------------------------------------------------=
