
     Program PWSCF v.6.5 starts on 14Jul2021 at 15:58: 6 

     This program is part of the open-source Quantum ESPRESSO suite
     for quantum simulation of materials; please cite
         "P. Giannozzi et al., J. Phys.:Condens. Matter 21 395502 (2009);
         "P. Giannozzi et al., J. Phys.:Condens. Matter 29 465901 (2017);
          URL http://www.quantum-espresso.org", 
     in publications or presentations arising from this work. More details at
     http://www.quantum-espresso.org/quote

     Parallel version (MPI & OpenMP), running on       6 processor cores
     Number of MPI processes:                 6
     Threads/MPI process:                     1

     MPI processes distributed on     1 nodes
     R & G space division:  proc/nbgrp/npool/nimage =       6
     Reading input from in
Warning: card &CELL ignored
Warning: card    CELL_DYNAMICS = 'BFGS' ignored
Warning: card / ignored

     Current dimensions of program PWSCF are:
     Max number of different atomic species (ntypx) = 10
     Max number of k-points (npk) =  40000
     Max angular momentum in pseudopotentials (lmaxx) =  3
               file Fe.potential.UPF: wavefunction(s)  3P 3D renormalized

     Subspace diagonalization in iterative solution of the eigenvalue problem:
     one sub-group per band group will be used
     scalapack distributed-memory algorithm (size of sub-group:  2*  2 procs)

     Found symmetry operation: I + ( -0.5000 -0.5000 -0.5000)
     This is a supercell, fractional translations are disabled
     Message from routine setup:
     using ibrav=0 with symmetry is DISCOURAGED, use correct ibrav instead
 
     Parallelization info
     --------------------
     sticks:   dense  smooth     PW     G-vecs:    dense   smooth      PW
     Min          62      62     20                  928      928     174
     Max          63      63     22                  931      931     175
     Sum         377     377    129                 5575     5575    1045
 


     bravais-lattice index     =            0
     lattice parameter (alat)  =       5.4802  a.u.
     unit-cell volume          =     164.5851 (a.u.)^3
     number of atoms/cell      =            2
     number of atomic types    =            1
     number of electrons       =        32.00
     number of Kohn-Sham states=           20
     kinetic-energy cutoff     =      40.0000  Ry
     charge density cutoff     =     160.0000  Ry
     convergence threshold     =      1.0E-08
     mixing beta               =       0.7000
     number of iterations used =            8  plain     mixing
     Exchange-correlation= SLA PW PBX PBC
                           (   1   4   3   4   0   0   0)
     nstep                     =           50


     celldm(1)=   5.480206  celldm(2)=   0.000000  celldm(3)=   0.000000
     celldm(4)=   0.000000  celldm(5)=   0.000000  celldm(6)=   0.000000

     crystal axes: (cart. coord. in units of alat)
               a(1) = (   1.000000   0.000000   0.000000 )  
               a(2) = (   0.000000   1.000000   0.000000 )  
               a(3) = (   0.000000   0.000000   1.000000 )  

     reciprocal axes: (cart. coord. in units 2 pi/alat)
               b(1) = (  1.000000  0.000000  0.000000 )  
               b(2) = (  0.000000  1.000000  0.000000 )  
               b(3) = (  0.000000  0.000000  1.000000 )  


     PseudoPot. # 1 for Fe read from file:
     ./Fe.potential.UPF
     MD5 check sum: fc81f059e5c5069939230b1155715ae8
     Pseudo is Projector augmented-wave + core cor, Zval = 16.0
     Generated using "atomic" code by A. Dal Corso v.6.3
     Shape of augmentation charge: PSQ
     Using radial grid of 1191 points,  6 beta functions with: 
                l(1) =   0
                l(2) =   0
                l(3) =   1
                l(4) =   1
                l(5) =   2
                l(6) =   2
     Q(r) pseudized with 0 coefficients 


     atomic species   valence    mass     pseudopotential
        Fe            16.00    55.84500     Fe( 1.00)

     Starting magnetic structure 
     atomic species   magnetization
        Fe           0.500

     48 Sym. Ops., with inversion, found



   Cartesian axes

     site n.     atom                  positions (alat units)
         1           Fe  tau(   1) = (   0.0000000   0.0000000   0.0000000  )
         2           Fe  tau(   2) = (   0.5000000   0.5000000   0.5000000  )

     number of k points=    10  Gaussian smearing, width (Ry)=  0.0050
                       cart. coord. in units 2pi/alat
        k(    1) = (   0.0000000   0.0000000   0.0000000), wk =   0.0156250
        k(    2) = (   0.0000000   0.0000000   0.2500000), wk =   0.0937500
        k(    3) = (   0.0000000   0.0000000  -0.5000000), wk =   0.0468750
        k(    4) = (   0.0000000   0.2500000   0.2500000), wk =   0.1875000
        k(    5) = (   0.0000000   0.2500000  -0.5000000), wk =   0.1875000
        k(    6) = (   0.0000000  -0.5000000  -0.5000000), wk =   0.0468750
        k(    7) = (   0.2500000   0.2500000   0.2500000), wk =   0.1250000
        k(    8) = (   0.2500000   0.2500000  -0.5000000), wk =   0.1875000
        k(    9) = (   0.2500000  -0.5000000  -0.5000000), wk =   0.0937500
        k(   10) = (  -0.5000000  -0.5000000  -0.5000000), wk =   0.0156250

     Dense  grid:     5575 G-vectors     FFT dimensions: (  24,  24,  24)

     Estimated max dynamical RAM per process >       5.49 MB

     Estimated total dynamical RAM >      32.92 MB
     Generating pointlists ...
     new r_m :   0.3572 (alat units)  1.9577 (a.u.) for type    1

     Check: negative core charge=   -0.000076

     Initial potential from superposition of free atoms

     starting charge   31.99912, renormalised to   32.00000
     Starting wfcs are   20 randomized atomic wfcs
     Checking if some PAW data can be deallocated... 

     total cpu time spent up to now is        5.6 secs

     Self-consistent Calculation

     iteration #  1     ecut=    40.00 Ry     beta= 0.70
     Davidson diagonalization with overlap
     ethr =  1.00E-02,  avg # of iterations =  3.2

     total cpu time spent up to now is       11.1 secs

     total energy              =    -657.88114518 Ry
     Harris-Foulkes estimate   =    -657.22737066 Ry
     estimated scf accuracy    <       1.16563708 Ry

     total magnetization       =     6.81 Bohr mag/cell
     absolute magnetization    =     7.00 Bohr mag/cell

     iteration #  2     ecut=    40.00 Ry     beta= 0.70
     Davidson diagonalization with overlap
     ethr =  3.64E-03,  avg # of iterations =  1.6

     total cpu time spent up to now is       14.9 secs

     total energy              =    -658.01367591 Ry
     Harris-Foulkes estimate   =    -658.00311975 Ry
     estimated scf accuracy    <       0.31137782 Ry

     total magnetization       =     5.78 Bohr mag/cell
     absolute magnetization    =     6.08 Bohr mag/cell

     iteration #  3     ecut=    40.00 Ry     beta= 0.70
     Davidson diagonalization with overlap
     ethr =  9.73E-04,  avg # of iterations =  3.0

     total cpu time spent up to now is       21.0 secs

     total energy              =    -658.00849405 Ry
     Harris-Foulkes estimate   =    -658.19296229 Ry
     estimated scf accuracy    <       0.54791022 Ry

     total magnetization       =     5.22 Bohr mag/cell
     absolute magnetization    =     5.50 Bohr mag/cell

     iteration #  4     ecut=    40.00 Ry     beta= 0.70
     Davidson diagonalization with overlap
     ethr =  9.73E-04,  avg # of iterations =  3.0

     total cpu time spent up to now is       26.8 secs

     total energy              =    -658.02460314 Ry
     Harris-Foulkes estimate   =    -658.19841312 Ry
     estimated scf accuracy    <       1.92716143 Ry

     total magnetization       =     4.31 Bohr mag/cell
     absolute magnetization    =     4.60 Bohr mag/cell

     iteration #  5     ecut=    40.00 Ry     beta= 0.70
     Davidson diagonalization with overlap
     ethr =  9.73E-04,  avg # of iterations =  1.7

     total cpu time spent up to now is       30.8 secs

     total energy              =    -658.10885584 Ry
     Harris-Foulkes estimate   =    -658.11121849 Ry
     estimated scf accuracy    <       0.00851024 Ry

     total magnetization       =     4.89 Bohr mag/cell
     absolute magnetization    =     5.23 Bohr mag/cell

     iteration #  6     ecut=    40.00 Ry     beta= 0.70
     Davidson diagonalization with overlap
     ethr =  2.66E-05,  avg # of iterations =  2.5

     total cpu time spent up to now is       35.9 secs

     total energy              =    -658.11119157 Ry
     Harris-Foulkes estimate   =    -658.11141411 Ry
     estimated scf accuracy    <       0.00176985 Ry

     total magnetization       =     4.87 Bohr mag/cell
     absolute magnetization    =     5.19 Bohr mag/cell

     iteration #  7     ecut=    40.00 Ry     beta= 0.70
     Davidson diagonalization with overlap
     ethr =  5.53E-06,  avg # of iterations =  1.5

     total cpu time spent up to now is       39.6 secs

     total energy              =    -658.11132970 Ry
     Harris-Foulkes estimate   =    -658.11134500 Ry
     estimated scf accuracy    <       0.00033223 Ry

     total magnetization       =     4.85 Bohr mag/cell
     absolute magnetization    =     5.16 Bohr mag/cell

     iteration #  8     ecut=    40.00 Ry     beta= 0.70
     Davidson diagonalization with overlap
     ethr =  1.04E-06,  avg # of iterations =  1.4

     total cpu time spent up to now is       43.2 secs

     total energy              =    -658.11135341 Ry
     Harris-Foulkes estimate   =    -658.11135610 Ry
     estimated scf accuracy    <       0.00001442 Ry

     total magnetization       =     4.85 Bohr mag/cell
     absolute magnetization    =     5.15 Bohr mag/cell

     iteration #  9     ecut=    40.00 Ry     beta= 0.70
     Davidson diagonalization with overlap
     ethr =  4.51E-08,  avg # of iterations =  2.5

     total cpu time spent up to now is       48.4 secs

     total energy              =    -658.11135789 Ry
     Harris-Foulkes estimate   =    -658.11135781 Ry
     estimated scf accuracy    <       0.00000303 Ry

     total magnetization       =     4.86 Bohr mag/cell
     absolute magnetization    =     5.16 Bohr mag/cell

     iteration # 10     ecut=    40.00 Ry     beta= 0.70
     Davidson diagonalization with overlap
     ethr =  9.47E-09,  avg # of iterations =  1.9

     total cpu time spent up to now is       52.8 secs

     total energy              =    -658.11135875 Ry
     Harris-Foulkes estimate   =    -658.11135876 Ry
     estimated scf accuracy    <       0.00000025 Ry

     total magnetization       =     4.86 Bohr mag/cell
     absolute magnetization    =     5.15 Bohr mag/cell

     iteration # 11     ecut=    40.00 Ry     beta= 0.70
     Davidson diagonalization with overlap
     ethr =  7.95E-10,  avg # of iterations =  1.9

     total cpu time spent up to now is       57.0 secs

     total energy              =    -658.11135876 Ry
     Harris-Foulkes estimate   =    -658.11135877 Ry
     estimated scf accuracy    <       0.00000006 Ry

     total magnetization       =     4.86 Bohr mag/cell
     absolute magnetization    =     5.15 Bohr mag/cell

     iteration # 12     ecut=    40.00 Ry     beta= 0.70
     Davidson diagonalization with overlap
     ethr =  1.74E-10,  avg # of iterations =  2.2
 
     Magnetic moment per site:
     atom:    1    charge:   14.4553    magn:    2.4908    constr:    0.0000
     atom:    2    charge:   14.4552    magn:    2.4909    constr:    0.0000

     total cpu time spent up to now is       61.6 secs

     End of self-consistent calculation

 ------ SPIN UP ------------


          k = 0.0000 0.0000 0.0000 (   739 PWs)   bands (ev):

   -71.5658 -71.4649 -37.5244 -37.5244 -37.5244 -37.3018 -37.3018 -37.3018
     8.6817  12.3558  12.3558  14.6409  14.6409  14.6409  15.6632  15.6632
    16.8056  16.8056  16.8056  26.0814

          k = 0.0000 0.0000 0.2500 (   699 PWs)   bands (ev):

   -71.5454 -71.4729 -37.4482 -37.4482 -37.4229 -37.3202 -37.2813 -37.2813
     9.8752  12.8285  12.8789  14.7371  14.7371  15.0623  15.3332  16.0173
    16.2477  16.2477  16.5639  21.2796

          k = 0.0000 0.0000-0.5000 (   708 PWs)   bands (ev):

   -71.5082 -71.5081 -37.4190 -37.4189 -37.3660 -37.3660 -37.3660 -37.3660
    12.4019  12.4019  14.0956  14.0956  15.0838  15.0838  15.0838  15.0838
    15.8278  15.8279  16.9860  16.9860

          k = 0.0000 0.2500 0.2500 (   708 PWs)   bands (ev):

   -71.5338 -71.4829 -37.5331 -37.4305 -37.4195 -37.3573 -37.3074 -37.2643
    10.8673  12.9567  13.4670  14.1851  14.5281  15.1241  15.5935  15.6861
    15.8641  15.8738  16.9776  21.5748

          k = 0.0000 0.2500-0.5000 (   712 PWs)   bands (ev):

   -71.5067 -71.5067 -37.5080 -37.5080 -37.3858 -37.3858 -37.2922 -37.2922
    12.4914  12.4914  14.1784  14.1784  14.4340  14.4341  15.5999  15.5999
    16.6386  16.6386  17.2952  17.2952

          k = 0.0000-0.5000-0.5000 (   680 PWs)   bands (ev):

   -71.5013 -71.5013 -37.4928 -37.4928 -37.3483 -37.3483 -37.2406 -37.2406
    12.3186  12.3186  13.7109  13.7109  15.9180  15.9181  16.2090  16.2090
    17.2300  17.2300  17.3095  17.3095

          k = 0.2500 0.2500 0.2500 (   702 PWs)   bands (ev):

   -71.5257 -71.4861 -37.4931 -37.4591 -37.4591 -37.3024 -37.3024 -37.2869
    11.8371  13.6308  13.6308  13.9663  13.9663  14.0574  15.8341  15.8341
    16.3846  16.3846  16.7884  23.4208

          k = 0.2500 0.2500-0.5000 (   706 PWs)   bands (ev):

   -71.5043 -71.5043 -37.4952 -37.4952 -37.3886 -37.3885 -37.2992 -37.2992
    13.0573  13.0573  13.7896  13.7897  14.3340  14.3341  15.7314  15.7314
    16.2174  16.2174  18.9383  18.9383

          k = 0.2500-0.5000-0.5000 (   688 PWs)   bands (ev):

   -71.5011 -71.5010 -37.4941 -37.4941 -37.3768 -37.3767 -37.2744 -37.2744
    12.9996  12.9996  13.6841  13.6841  14.9427  14.9427  16.0075  16.0075
    16.2001  16.2001  20.5908  20.5908

          k =-0.5000-0.5000-0.5000 (   672 PWs)   bands (ev):

   -71.4984 -71.4983 -37.3732 -37.3732 -37.3732 -37.3731 -37.3731 -37.3731
    13.8716  13.8716  13.8716  13.8716  13.8716  13.8716  16.2024  16.2024
    16.2024  16.2024  24.9264  24.9264

 ------ SPIN DOWN ----------


          k = 0.0000 0.0000 0.0000 (   739 PWs)   bands (ev):

   -68.6290 -68.5186 -34.6678 -34.6678 -34.6678 -34.4186 -34.4186 -34.4186
     8.7942  14.2814  14.2814  16.8425  16.8425  16.8425  18.5921  18.5921
    19.3152  19.3152  19.3152  26.3435

          k = 0.0000 0.0000 0.2500 (   699 PWs)   bands (ev):

   -68.6083 -68.5288 -34.5882 -34.5882 -34.5667 -34.4459 -34.4021 -34.4021
    10.0015  14.5085  14.9129  16.8897  16.8897  17.3002  18.0797  18.5013
    18.5013  18.9833  19.0208  22.3234

          k = 0.0000 0.0000-0.5000 (   708 PWs)   bands (ev):

   -68.5673 -68.5673 -34.5586 -34.5585 -34.4956 -34.4956 -34.4955 -34.4955
    12.9062  12.9062  16.4516  16.4516  17.2020  17.2020  17.2021  17.2021
    18.1702  18.1702  19.5555  19.5555

          k = 0.0000 0.2500 0.2500 (   708 PWs)   bands (ev):

   -68.5952 -68.5395 -34.6837 -34.5670 -34.5572 -34.4884 -34.4305 -34.3819
    11.0703  14.7557  15.2318  16.2596  16.5097  17.2339  17.8442  18.1946
    18.4478  18.8194  19.5043  22.6595

          k = 0.0000 0.2500-0.5000 (   712 PWs)   bands (ev):

   -68.5656 -68.5656 -34.6584 -34.6584 -34.5152 -34.5152 -34.4139 -34.4139
    13.4163  13.4163  16.1621  16.1621  16.2087  16.2087  18.1110  18.1110
    19.0974  19.0974  19.6083  19.6083

          k = 0.0000-0.5000-0.5000 (   680 PWs)   bands (ev):

   -68.5610 -68.5609 -34.6519 -34.6519 -34.4775 -34.4775 -34.3580 -34.3580
    13.6815  13.6815  15.6822  15.6822  17.2729  17.2729  18.6725  18.6725
    19.2033  19.2033  19.8514  19.8514

          k = 0.2500 0.2500 0.2500 (   702 PWs)   bands (ev):

   -68.5859 -68.5439 -34.6360 -34.6050 -34.6050 -34.4244 -34.4244 -34.4116
    12.0913  15.3912  15.3912  15.8909  15.9515  15.9515  18.7200  18.7200
    18.8686  18.8686  19.0558  24.5806

          k = 0.2500 0.2500-0.5000 (   706 PWs)   bands (ev):

   -68.5631 -68.5631 -34.6451 -34.6451 -34.5220 -34.5220 -34.4205 -34.4205
    14.1268  14.1268  15.6121  15.6122  15.9920  15.9920  18.4333  18.4333
    19.0492  19.0492  20.8333  20.8333

          k = 0.2500-0.5000-0.5000 (   688 PWs)   bands (ev):

   -68.5602 -68.5602 -34.6461 -34.6461 -34.5096 -34.5096 -34.3979 -34.3979
    14.4570  14.4570  15.5218  15.5218  16.1562  16.1562  18.8628  18.8628
    19.2007  19.2007  21.9530  21.9530

          k =-0.5000-0.5000-0.5000 (   672 PWs)   bands (ev):

   -68.5577 -68.5577 -34.5105 -34.5105 -34.5105 -34.5105 -34.5105 -34.5105
    15.4298  15.4298  15.4298  15.4298  15.4298  15.4298  19.2099  19.2099
    19.2100  19.2100  25.9048  25.9048

     the Fermi energy is    17.1547 ev

!    total energy              =    -658.11135877 Ry
     Harris-Foulkes estimate   =    -658.11135877 Ry
     estimated scf accuracy    <          2.1E-09 Ry

     total all-electron energy =     -5090.704425 Ry

     The total energy is the sum of the following terms:

     one-electron contribution =    -231.58303697 Ry
     hartree contribution      =     134.43477829 Ry
     xc contribution           =     -55.47012807 Ry
     ewald contribution        =    -340.00320412 Ry
     one-center paw contrib.   =    -165.48948082 Ry
     smearing contrib. (-TS)   =      -0.00028708 Ry

     total magnetization       =     4.86 Bohr mag/cell
     absolute magnetization    =     5.15 Bohr mag/cell

     convergence has been achieved in  12 iterations

     Forces acting on atoms (cartesian axes, Ry/au):

     atom    1 type  1   force =     0.00000000    0.00000000    0.00000000
     atom    2 type  1   force =     0.00000000    0.00000000    0.00000000

     Total force =     0.000000     Total SCF correction =     0.000000


     Computing stress (Cartesian axis) and pressure

          total   stress  (Ry/bohr**3)                   (kbar)     P=    -2541.83
  -0.01727899   0.00000000   0.00000000        -2541.83        0.00        0.00
   0.00000000  -0.01727899   0.00000000            0.00    -2541.83        0.00
   0.00000000   0.00000000  -0.01727899            0.00        0.00    -2541.83


     BFGS Geometry Optimization

     bfgs converged in   1 scf cycles and   0 bfgs steps
     (criteria: energy <  1.0E-04 Ry, force <  1.0E-03 Ry/Bohr)

     End of BFGS Geometry Optimization

     Final energy   =    -658.1113587701 Ry
Begin final coordinates

ATOMIC_POSITIONS (crystal)
Fe            0.0000000000        0.0000000000        0.0000000000
Fe            0.5000000000        0.5000000000        0.5000000000
End final coordinates



     Writing output data file ./iron.save/
 
     init_run     :      0.33s CPU      2.19s WALL (       1 calls)
     electrons    :      8.69s CPU     56.08s WALL (       1 calls)
     forces       :      0.02s CPU      0.13s WALL (       1 calls)
     stress       :      0.05s CPU      0.31s WALL (       1 calls)

     Called by init_run:
     wfcinit      :      0.14s CPU      0.92s WALL (       1 calls)
     potinit      :      0.14s CPU      0.89s WALL (       1 calls)
     hinit0       :      0.05s CPU      0.32s WALL (       1 calls)

     Called by electrons:
     c_bands      :      6.75s CPU     44.03s WALL (      12 calls)
     sum_band     :      0.30s CPU      1.95s WALL (      12 calls)
     v_of_rho     :      0.04s CPU      0.24s WALL (      13 calls)
     newd         :      0.03s CPU      0.20s WALL (      13 calls)
     PAW_pot      :      1.68s CPU     10.36s WALL (      13 calls)
     mix_rho      :      0.02s CPU      0.11s WALL (      12 calls)

     Called by c_bands:
     init_us_2    :      0.02s CPU      0.02s WALL (     540 calls)
     cegterg      :      6.65s CPU     43.70s WALL (     240 calls)

     Called by sum_band:
     sum_band:bec :      0.00s CPU      0.00s WALL (     240 calls)
     addusdens    :      0.05s CPU      0.05s WALL (      12 calls)

     Called by *egterg:
     h_psi        :      1.02s CPU      7.05s WALL (     788 calls)
     s_psi        :      0.01s CPU      0.01s WALL (     788 calls)
     g_psi        :      0.00s CPU      0.00s WALL (     528 calls)
     cdiaghg      :      5.08s CPU     33.19s WALL (     768 calls)

     Called by h_psi:
     h_psi:calbec :      0.07s CPU      0.61s WALL (     788 calls)
     vloc_psi     :      0.93s CPU      6.42s WALL (     788 calls)
     add_vuspsi   :      0.02s CPU      0.02s WALL (     788 calls)

     General routines
     calbec       :      0.10s CPU      0.99s WALL (    1128 calls)
     fft          :      0.02s CPU      0.37s WALL (     315 calls)
     ffts         :      0.00s CPU      0.02s WALL (      24 calls)
     fftw         :      1.03s CPU      7.66s WALL (   27742 calls)
 
     Parallel routines
     fft_scatt_xy :      0.13s CPU      0.14s WALL (   28081 calls)
     fft_scatt_yz :      0.55s CPU      7.51s WALL (   28081 calls)
 
     PWSCF        :      9.74s CPU   1m 2.75s WALL

 
   This run was terminated on:  15:59: 8  14Jul2021            

=------------------------------------------------------------------------------=
   JOB DONE.
=------------------------------------------------------------------------------=
