
     Program PWSCF v.6.5 starts on  9Jul2021 at 12:31:48 

     This program is part of the open-source Quantum ESPRESSO suite
     for quantum simulation of materials; please cite
         "P. Giannozzi et al., J. Phys.:Condens. Matter 21 395502 (2009);
         "P. Giannozzi et al., J. Phys.:Condens. Matter 29 465901 (2017);
          URL http://www.quantum-espresso.org", 
     in publications or presentations arising from this work. More details at
     http://www.quantum-espresso.org/quote

     Parallel version (MPI & OpenMP), running on       6 processor cores
     Number of MPI processes:                 6
     Threads/MPI process:                     1

     MPI processes distributed on     1 nodes
     R & G space division:  proc/nbgrp/npool/nimage =       6
     Reading input from in
Warning: card &CELL ignored
Warning: card    CELL_DYNAMICS = 'BFGS' ignored
Warning: card / ignored

     Current dimensions of program PWSCF are:
     Max number of different atomic species (ntypx) = 10
     Max number of k-points (npk) =  40000
     Max angular momentum in pseudopotentials (lmaxx) =  3
               file Au.potential.UPF: wavefunction(s)  6S 5D renormalized

     Subspace diagonalization in iterative solution of the eigenvalue problem:
     one sub-group per band group will be used
     scalapack distributed-memory algorithm (size of sub-group:  2*  2 procs)

     Found symmetry operation: I + ( -0.5000 -0.5000  0.0000)
     This is a supercell, fractional translations are disabled
     Message from routine setup:
     using ibrav=0 with symmetry is DISCOURAGED, use correct ibrav instead
 
     Parallelization info
     --------------------
     sticks:   dense  smooth     PW     G-vecs:    dense   smooth      PW
     Min         126     126     40                 2648     2648     462
     Max         128     128     41                 2651     2651     465
     Sum         761     761    241                15895    15895    2777
 


     bravais-lattice index     =            0
     lattice parameter (alat)  =       7.7479  a.u.
     unit-cell volume          =     465.1020 (a.u.)^3
     number of atoms/cell      =            4
     number of atomic types    =            1
     number of electrons       =        44.00
     number of Kohn-Sham states=           26
     kinetic-energy cutoff     =      40.0000  Ry
     charge density cutoff     =     160.0000  Ry
     convergence threshold     =      1.0E-08
     mixing beta               =       0.7000
     number of iterations used =            8  plain     mixing
     Exchange-correlation= SLA PW PBX PBC
                           (   1   4   3   4   0   0   0)
     nstep                     =           50


     celldm(1)=   7.747877  celldm(2)=   0.000000  celldm(3)=   0.000000
     celldm(4)=   0.000000  celldm(5)=   0.000000  celldm(6)=   0.000000

     crystal axes: (cart. coord. in units of alat)
               a(1) = (   1.000000   0.000000   0.000000 )  
               a(2) = (   0.000000   1.000000   0.000000 )  
               a(3) = (   0.000000   0.000000   1.000000 )  

     reciprocal axes: (cart. coord. in units 2 pi/alat)
               b(1) = (  1.000000  0.000000  0.000000 )  
               b(2) = (  0.000000  1.000000  0.000000 )  
               b(3) = (  0.000000  0.000000  1.000000 )  


     PseudoPot. # 1 for Au read from file:
     ./Au.potential.UPF
     MD5 check sum: 4db85c736373c707a97ce4c36c2a9d23
     Pseudo is Projector augmented-wave + core cor, Zval = 11.0
     Generated using "atomic" code by A. Dal Corso v.6.3
     Shape of augmentation charge: PSQ
     Using radial grid of 1279 points,  6 beta functions with: 
                l(1) =   0
                l(2) =   0
                l(3) =   1
                l(4) =   1
                l(5) =   2
                l(6) =   2
     Q(r) pseudized with 0 coefficients 


     atomic species   valence    mass     pseudopotential
        Au            11.00   196.97000     Au( 1.00)

     48 Sym. Ops., with inversion, found



   Cartesian axes

     site n.     atom                  positions (alat units)
         1           Au  tau(   1) = (   0.0000000   0.0000000   0.0000000  )
         2           Au  tau(   2) = (   0.5000000   0.5000000   0.0000000  )
         3           Au  tau(   3) = (   0.0000000   0.5000000   0.5000000  )
         4           Au  tau(   4) = (   0.5000000   0.0000000   0.5000000  )

     number of k points=    10  Gaussian smearing, width (Ry)=  0.0050
                       cart. coord. in units 2pi/alat
        k(    1) = (   0.0000000   0.0000000   0.0000000), wk =   0.0312500
        k(    2) = (   0.0000000   0.0000000   0.2500000), wk =   0.1875000
        k(    3) = (   0.0000000   0.0000000  -0.5000000), wk =   0.0937500
        k(    4) = (   0.0000000   0.2500000   0.2500000), wk =   0.3750000
        k(    5) = (   0.0000000   0.2500000  -0.5000000), wk =   0.3750000
        k(    6) = (   0.0000000  -0.5000000  -0.5000000), wk =   0.0937500
        k(    7) = (   0.2500000   0.2500000   0.2500000), wk =   0.2500000
        k(    8) = (   0.2500000   0.2500000  -0.5000000), wk =   0.3750000
        k(    9) = (   0.2500000  -0.5000000  -0.5000000), wk =   0.1875000
        k(   10) = (  -0.5000000  -0.5000000  -0.5000000), wk =   0.0312500

     Dense  grid:    15895 G-vectors     FFT dimensions: (  32,  32,  32)

     Estimated max dynamical RAM per process >      12.72 MB

     Estimated total dynamical RAM >      76.29 MB

     Initial potential from superposition of free atoms

     starting charge   43.99956, renormalised to   44.00000
     Starting wfcs are   36 randomized atomic wfcs
     Checking if some PAW data can be deallocated... 

     total cpu time spent up to now is        7.5 secs

     Self-consistent Calculation

     iteration #  1     ecut=    40.00 Ry     beta= 0.70
     Davidson diagonalization with overlap
     ethr =  1.00E-02,  avg # of iterations =  2.7

     Threshold (ethr) on eigenvalues was too large:
     Diagonalizing with lowered threshold

     Davidson diagonalization with overlap
     ethr =  2.87E-04,  avg # of iterations =  4.1

     total cpu time spent up to now is       13.2 secs

     total energy              =   -3100.46474408 Ry
     Harris-Foulkes estimate   =   -3100.61634294 Ry
     estimated scf accuracy    <       0.21827565 Ry

     iteration #  2     ecut=    40.00 Ry     beta= 0.70
     Davidson diagonalization with overlap
     ethr =  4.96E-04,  avg # of iterations =  3.0

     total cpu time spent up to now is       16.4 secs

     total energy              =   -3100.53088962 Ry
     Harris-Foulkes estimate   =   -3100.56459241 Ry
     estimated scf accuracy    <       0.05587842 Ry

     iteration #  3     ecut=    40.00 Ry     beta= 0.70
     Davidson diagonalization with overlap
     ethr =  1.27E-04,  avg # of iterations =  2.8

     total cpu time spent up to now is       19.4 secs

     total energy              =   -3100.54460032 Ry
     Harris-Foulkes estimate   =   -3100.54518296 Ry
     estimated scf accuracy    <       0.00136986 Ry

     iteration #  4     ecut=    40.00 Ry     beta= 0.70
     Davidson diagonalization with overlap
     ethr =  3.11E-06,  avg # of iterations =  4.0

     total cpu time spent up to now is       23.3 secs

     total energy              =   -3100.54567505 Ry
     Harris-Foulkes estimate   =   -3100.54657156 Ry
     estimated scf accuracy    <       0.00236783 Ry

     iteration #  5     ecut=    40.00 Ry     beta= 0.70
     Davidson diagonalization with overlap
     ethr =  3.11E-06,  avg # of iterations =  2.1

     total cpu time spent up to now is       26.0 secs

     total energy              =   -3100.54559769 Ry
     Harris-Foulkes estimate   =   -3100.54589364 Ry
     estimated scf accuracy    <       0.00057219 Ry

     iteration #  6     ecut=    40.00 Ry     beta= 0.70
     Davidson diagonalization with overlap
     ethr =  1.30E-06,  avg # of iterations =  2.2

     total cpu time spent up to now is       28.7 secs

     total energy              =   -3100.54569867 Ry
     Harris-Foulkes estimate   =   -3100.54570529 Ry
     estimated scf accuracy    <       0.00002070 Ry

     iteration #  7     ecut=    40.00 Ry     beta= 0.70
     Davidson diagonalization with overlap
     ethr =  4.70E-08,  avg # of iterations =  4.0

     total cpu time spent up to now is       32.6 secs

     total energy              =   -3100.54572392 Ry
     Harris-Foulkes estimate   =   -3100.54572419 Ry
     estimated scf accuracy    <       0.00000140 Ry

     iteration #  8     ecut=    40.00 Ry     beta= 0.70
     Davidson diagonalization with overlap
     ethr =  3.18E-09,  avg # of iterations =  2.2

     total cpu time spent up to now is       35.2 secs

     total energy              =   -3100.54572390 Ry
     Harris-Foulkes estimate   =   -3100.54572415 Ry
     estimated scf accuracy    <       0.00000077 Ry

     iteration #  9     ecut=    40.00 Ry     beta= 0.70
     Davidson diagonalization with overlap
     ethr =  1.74E-09,  avg # of iterations =  1.4

     total cpu time spent up to now is       37.6 secs

     total energy              =   -3100.54572381 Ry
     Harris-Foulkes estimate   =   -3100.54572395 Ry
     estimated scf accuracy    <       0.00000029 Ry

     iteration # 10     ecut=    40.00 Ry     beta= 0.70
     Davidson diagonalization with overlap
     ethr =  6.54E-10,  avg # of iterations =  3.7

     total cpu time spent up to now is       41.0 secs

     total energy              =   -3100.54572392 Ry
     Harris-Foulkes estimate   =   -3100.54572391 Ry
     estimated scf accuracy    <       0.00000002 Ry

     iteration # 11     ecut=    40.00 Ry     beta= 0.70
     Davidson diagonalization with overlap
     ethr =  5.55E-11,  avg # of iterations =  3.5

     total cpu time spent up to now is       44.2 secs

     total energy              =   -3100.54572390 Ry
     Harris-Foulkes estimate   =   -3100.54572393 Ry
     estimated scf accuracy    <       0.00000006 Ry

     iteration # 12     ecut=    40.00 Ry     beta= 0.70
     Davidson diagonalization with overlap
     ethr =  5.55E-11,  avg # of iterations =  3.1

     total cpu time spent up to now is       47.2 secs

     End of self-consistent calculation

          k = 0.0000 0.0000 0.0000 (  1935 PWs)   bands (ev):

     5.8896   8.6704   8.6704   8.6704   8.9772   8.9772   8.9772  10.9982
    10.9982  10.9982  12.4846  12.4846  13.6171  13.6171  13.6171  13.9755
    13.9755  13.9755  13.9755  13.9755  13.9755  16.7079  16.7079  16.7079
    21.3123  21.3123

          k = 0.0000 0.0000 0.2500 (  1980 PWs)   bands (ev):

     6.5940   8.8544   9.1179   9.1179   9.2336   9.3738   9.3738  10.6540
    11.3183  11.3183  12.1251  12.3837  12.3837  12.6393  13.0900  13.0900
    13.3645  13.3645  13.4390  13.7215  13.9763  13.9763  18.7882  18.7882
    20.7912  20.7912

          k = 0.0000 0.0000-0.5000 (  1984 PWs)   bands (ev):

     8.2923   8.2923   9.7558   9.7558   9.9009   9.9009  10.5443  10.5443
    10.5443  10.5443  11.6868  11.6869  12.2103  12.2103  12.2104  12.2104
    12.3491  12.3491  13.0275  13.0276  13.9773  13.9773  20.3520  20.3520
    21.9315  21.9315

          k = 0.0000 0.2500 0.2500 (  1979 PWs)   bands (ev):

     7.2286   9.2692   9.3479   9.3479   9.5827   9.5827   9.8791  10.5971
    11.3386  11.4274  11.5135  11.5135  11.8441  12.0977  12.7715  12.8129
    13.0750  13.0750  13.3553  13.3553  13.5408  15.7606  15.7606  19.5085
    20.2870  23.0040

          k = 0.0000 0.2500-0.5000 (  1998 PWs)   bands (ev):

     8.7764   8.7764  10.0139  10.0139  10.1066  10.1066  10.3076  10.3076
    10.5703  10.5703  11.0441  11.0441  12.2116  12.2116  12.3034  12.3035
    12.3591  12.3591  13.3571  13.3571  13.7521  13.7521  17.6769  17.6769
    22.7565  22.7565

          k = 0.0000-0.5000-0.5000 (  2000 PWs)   bands (ev):

     9.6222   9.6222   9.6222   9.6222  10.4772  10.4772  10.4772  10.4772
    10.8157  10.8157  10.8157  10.8158  11.9033  11.9033  11.9033  11.9034
    12.4804  12.4804  12.4804  12.4804  15.3327  15.3327  15.3327  15.3327
    24.1862  24.1862

          k = 0.2500 0.2500 0.2500 (  1998 PWs)   bands (ev):

     7.6721   9.2695   9.2695   9.2695  10.1664  10.1664  10.1664  10.8751
    11.2743  11.2743  11.3477  11.3477  11.3477  12.1615  12.1615  12.1615
    12.6513  12.6513  13.7476  13.7476  13.7476  16.6473  16.6473  16.6473
    21.0599  21.0599

          k = 0.2500 0.2500-0.5000 (  1976 PWs)   bands (ev):

     8.6643   8.6643   9.4221   9.4221  10.3480  10.3481  10.9092  10.9093
    10.9900  10.9900  11.4338  11.4338  11.4789  11.4789  11.8213  11.8214
    13.4343  13.4343  13.5277  13.5277  13.5993  13.5993  18.2757  18.2757
    18.6669  18.6669

          k = 0.2500-0.5000-0.5000 (  1996 PWs)   bands (ev):

     8.8151   8.8151   8.8151   8.8151  10.8169  10.8169  10.8169  10.8169
    11.2821  11.2821  11.2821  11.2821  12.0520  12.0520  12.0520  12.0521
    13.2198  13.2199  13.2199  13.2199  15.2417  15.2417  15.2417  15.2417
    20.6414  20.6414

          k =-0.5000-0.5000-0.5000 (  2008 PWs)   bands (ev):

     8.4181   8.4181   8.4181   8.4181  10.9631  10.9631  10.9631  10.9631
    10.9631  10.9631  10.9631  10.9631  13.6604  13.6604  13.6604  13.6604
    13.6604  13.6604  13.6604  13.6604  14.7302  14.7302  14.7302  14.7302
    18.6400  18.6400

     the Fermi energy is    15.6773 ev

!    total energy              =   -3100.54572391 Ry
     Harris-Foulkes estimate   =   -3100.54572391 Ry
     estimated scf accuracy    <          3.8E-09 Ry

     total all-electron energy =   -152095.930088 Ry

     The total energy is the sum of the following terms:

     one-electron contribution =      53.36250370 Ry
     hartree contribution      =      31.01610479 Ry
     xc contribution           =    -128.42572001 Ry
     ewald contribution        =    -286.41048413 Ry
     one-center paw contrib.   =   -2770.08789206 Ry
     smearing contrib. (-TS)   =      -0.00023620 Ry

     convergence has been achieved in  12 iterations

     Forces acting on atoms (cartesian axes, Ry/au):

     atom    1 type  1   force =     0.00000000    0.00000000    0.00000000
     atom    2 type  1   force =     0.00000000    0.00000000    0.00000000
     atom    3 type  1   force =     0.00000000    0.00000000    0.00000000
     atom    4 type  1   force =     0.00000000    0.00000000    0.00000000

     Total force =     0.000000     Total SCF correction =     0.000000


     Computing stress (Cartesian axis) and pressure

          total   stress  (Ry/bohr**3)                   (kbar)     P=       71.65
   0.00048707   0.00000000   0.00000000           71.65        0.00        0.00
   0.00000000   0.00048707   0.00000000            0.00       71.65        0.00
   0.00000000   0.00000000   0.00048707            0.00        0.00       71.65


     BFGS Geometry Optimization

     bfgs converged in   1 scf cycles and   0 bfgs steps
     (criteria: energy <  1.0E-04 Ry, force <  1.0E-03 Ry/Bohr)

     End of BFGS Geometry Optimization

     Final energy   =   -3100.5457239083 Ry
Begin final coordinates

ATOMIC_POSITIONS (crystal)
Au            0.0000000000        0.0000000000        0.0000000000
Au            0.5000000000        0.5000000000        0.0000000000
Au            0.0000000000        0.5000000000        0.5000000000
Au            0.5000000000        0.0000000000        0.5000000000
End final coordinates



     Writing output data file ./gold.save/
 
     init_run     :      0.36s CPU      2.41s WALL (       1 calls)
     electrons    :      5.94s CPU     39.83s WALL (       1 calls)
     forces       :      0.05s CPU      0.26s WALL (       1 calls)
     stress       :      0.14s CPU      0.89s WALL (       1 calls)

     Called by init_run:
     wfcinit      :      0.09s CPU      0.63s WALL (       1 calls)
     potinit      :      0.15s CPU      1.01s WALL (       1 calls)
     hinit0       :      0.09s CPU      0.58s WALL (       1 calls)

     Called by electrons:
     c_bands      :      3.70s CPU     24.42s WALL (      13 calls)
     sum_band     :      0.45s CPU      2.96s WALL (      13 calls)
     v_of_rho     :      0.05s CPU      0.27s WALL (      13 calls)
     newd         :      0.08s CPU      0.74s WALL (      13 calls)
     PAW_pot      :      1.78s CPU     12.19s WALL (      13 calls)
     mix_rho      :      0.01s CPU      0.12s WALL (      13 calls)

     Called by c_bands:
     init_us_2    :      0.05s CPU      0.13s WALL (     290 calls)
     cegterg      :      3.45s CPU     23.87s WALL (     130 calls)

     Called by sum_band:
     sum_band:bec :      0.00s CPU      0.00s WALL (     130 calls)
     addusdens    :      0.09s CPU      0.55s WALL (      13 calls)

     Called by *egterg:
     h_psi        :      1.72s CPU     12.38s WALL (     528 calls)
     s_psi        :      0.06s CPU      0.06s WALL (     528 calls)
     g_psi        :      0.02s CPU      0.02s WALL (     388 calls)
     cdiaghg      :      1.29s CPU      8.78s WALL (     508 calls)

     Called by h_psi:
     h_psi:calbec :      0.10s CPU      1.25s WALL (     528 calls)
     vloc_psi     :      1.52s CPU     11.03s WALL (     528 calls)
     add_vuspsi   :      0.09s CPU      0.09s WALL (     528 calls)

     General routines
     calbec       :      0.15s CPU      1.77s WALL (     708 calls)
     fft          :      0.03s CPU      0.66s WALL (     169 calls)
     ffts         :      0.00s CPU      0.02s WALL (      13 calls)
     fftw         :      1.58s CPU     12.64s WALL (   23472 calls)
 
     Parallel routines
     fft_scatt_xy :      0.24s CPU      0.26s WALL (   23654 calls)
     fft_scatt_yz :      0.79s CPU     12.44s WALL (   23654 calls)
 
     PWSCF        :      7.36s CPU     48.90s WALL

 
   This run was terminated on:  12:32:37   9Jul2021            

=------------------------------------------------------------------------------=
   JOB DONE.
=------------------------------------------------------------------------------=
